<?xml version="1.0" encoding="UTF-8"?>

<!-- generated on 2022-06-14 17:24:48 by Eclipse SUMO GUI Version 1.13.0
<configuration xmlns:xsi="http://www.w3.org/2001/XMLSchema-instance" xsi:noNamespaceSchemaLocation="http://sumo.dlr.de/xsd/sumoConfiguration.xsd">

    <input>
        <net-file value="railvc.net.xml"/>
        <route-files value="railvc.rou.xml"/>
        <additional-files value="railvc.add.xml"/>
    </input>

    <output>
        <tripinfo-output value="tripinfo.xml"/>
    </output>

    <traci_server>
        <remote-port value="56140"/>
    </traci_server>

</configuration>
-->

<tripinfos xmlns:xsi="http://www.w3.org/2001/XMLSchema-instance" xsi:noNamespaceSchemaLocation="http://sumo.dlr.de/xsd/tripinfo_file.xsd">
    <tripinfo id="1" depart="0.00" departLane="E2_0" departPos="100.10" departSpeed="0.00" departDelay="0.00" arrival="349.00" arrivalLane="E3_0" arrivalPos="194.50" arrivalSpeed="20.00" duration="349.00" routeLength="6656.28" waitingTime="0.00" waitingCount="0" stopTime="0.00" timeLoss="126.56" rerouteNo="5" devices="tripinfo_1" vType="rail1" speedFactor="1.00" vaporized=""/>
    <tripinfo id="2" depart="0.00" departLane="E1_0" departPos="100.10" departSpeed="0.00" departDelay="0.00" arrival="663.00" arrivalLane="E4_0" arrivalPos="121.12" arrivalSpeed="20.00" duration="663.00" routeLength="12952.21" waitingTime="0.00" waitingCount="0" stopTime="0.00" timeLoss="231.17" rerouteNo="8" devices="tripinfo_2" vType="rail2@2" speedFactor="1.00" vaporized=""/>
    <tripinfo id="3" depart="0.00" departLane="E18_0" departPos="70.08" departSpeed="0.00" departDelay="0.00" arrival="669.00" arrivalLane="E4_0" arrivalPos="121.12" arrivalSpeed="20.00" duration="669.00" routeLength="13258.12" waitingTime="0.00" waitingCount="0" stopTime="0.00" timeLoss="226.79" rerouteNo="8" devices="tripinfo_3" vType="rail3@3" speedFactor="1.00" vaporized=""/>
</tripinfos>
