<?xml version="1.0" encoding="UTF-8"?>

<!-- generated on 2022-07-05 16:18:22 by Eclipse SUMO GUI Version 1.13.0
<configuration xmlns:xsi="http://www.w3.org/2001/XMLSchema-instance" xsi:noNamespaceSchemaLocation="http://sumo.dlr.de/xsd/sumoConfiguration.xsd">

    <input>
        <net-file value="railvc2.net.xml"/>
        <route-files value="railvc2.rou.xml"/>
        <additional-files value="railvc2.add.xml"/>
    </input>

    <output>
        <tripinfo-output value="tripinfo.xml"/>
    </output>

    <traci_server>
        <remote-port value="64173"/>
    </traci_server>

</configuration>
-->

<tripinfos xmlns:xsi="http://www.w3.org/2001/XMLSchema-instance" xsi:noNamespaceSchemaLocation="http://sumo.dlr.de/xsd/tripinfo_file.xsd">
    <tripinfo id="23" depart="684.00" departLane="E3_0" departPos="100.10" departSpeed="0.00" departDelay="245.00" arrival="1553.00" arrivalLane="E40_0" arrivalPos="100.95" arrivalSpeed="15.46" duration="869.00" routeLength="4396.10" waitingTime="183.00" waitingCount="1" stopTime="0.00" timeLoss="694.97" rerouteNo="1" devices="tripinfo_23" vType="rail23@23" speedFactor="1.00" vaporized=""/>
    <tripinfo id="24" depart="819.00" departLane="E3_0" departPos="100.10" departSpeed="0.00" departDelay="358.00" arrival="1585.00" arrivalLane="E40_0" arrivalPos="100.95" arrivalSpeed="15.82" duration="766.00" routeLength="4396.10" waitingTime="184.00" waitingCount="3" stopTime="0.00" timeLoss="593.08" rerouteNo="1" devices="tripinfo_24" vType="rail24" speedFactor="1.00" vaporized=""/>
    <tripinfo id="25" depart="1140.00" departLane="E3_0" departPos="100.10" departSpeed="0.00" departDelay="657.00" arrival="1613.00" arrivalLane="E40_0" arrivalPos="100.95" arrivalSpeed="15.65" duration="473.00" routeLength="4396.10" waitingTime="0.00" waitingCount="0" stopTime="0.00" timeLoss="299.98" rerouteNo="1" devices="tripinfo_25" vType="rail25" speedFactor="1.00" vaporized=""/>
    <tripinfo id="1" depart="0.00" departLane="E1_0" departPos="100.10" departSpeed="0.00" departDelay="0.00" arrival="1696.00" arrivalLane="E40_0" arrivalPos="100.95" arrivalSpeed="10.20" duration="1696.00" routeLength="18144.70" waitingTime="0.00" waitingCount="0" stopTime="0.00" timeLoss="1058.79" rerouteNo="7" devices="tripinfo_1" vType="rail1" speedFactor="1.00" vaporized=""/>
    <tripinfo id="2" depart="0.00" departLane="E2_0" departPos="100.10" departSpeed="0.00" departDelay="0.00" arrival="1707.00" arrivalLane="E40_0" arrivalPos="100.95" arrivalSpeed="10.20" duration="1707.00" routeLength="18171.07" waitingTime="0.00" waitingCount="0" stopTime="0.00" timeLoss="1061.91" rerouteNo="7" devices="tripinfo_2" vType="rail2@2" speedFactor="1.00" vaporized=""/>
    <tripinfo id="3" depart="0.00" departLane="E3_0" departPos="100.10" departSpeed="0.00" departDelay="0.00" arrival="1719.00" arrivalLane="E40_0" arrivalPos="100.95" arrivalSpeed="10.20" duration="1719.00" routeLength="18194.75" waitingTime="12.00" waitingCount="1" stopTime="0.00" timeLoss="1070.48" rerouteNo="7" devices="tripinfo_3" vType="rail3@3" speedFactor="1.00" vaporized=""/>
    <tripinfo id="4" depart="21.00" departLane="E3_0" departPos="100.10" departSpeed="0.00" departDelay="0.00" arrival="1730.00" arrivalLane="E40_0" arrivalPos="100.95" arrivalSpeed="10.20" duration="1709.00" routeLength="18194.75" waitingTime="3.00" waitingCount="1" stopTime="0.00" timeLoss="1058.46" rerouteNo="7" devices="tripinfo_4" vType="rail4@4" speedFactor="1.00" vaporized=""/>
    <tripinfo id="5" depart="43.00" departLane="E3_0" departPos="100.10" departSpeed="0.00" departDelay="0.00" arrival="1741.00" arrivalLane="E40_0" arrivalPos="100.95" arrivalSpeed="10.20" duration="1698.00" routeLength="18194.75" waitingTime="0.00" waitingCount="0" stopTime="0.00" timeLoss="1047.76" rerouteNo="7" devices="tripinfo_5" vType="rail5@5" speedFactor="1.00" vaporized=""/>
    <tripinfo id="6" depart="65.00" departLane="E3_0" departPos="100.10" departSpeed="0.00" departDelay="0.00" arrival="1753.00" arrivalLane="E40_0" arrivalPos="100.95" arrivalSpeed="10.20" duration="1688.00" routeLength="18194.75" waitingTime="0.00" waitingCount="0" stopTime="0.00" timeLoss="1037.47" rerouteNo="7" devices="tripinfo_6" vType="rail6@6" speedFactor="1.00" vaporized=""/>
    <tripinfo id="7" depart="87.00" departLane="E3_0" departPos="100.10" departSpeed="0.00" departDelay="0.00" arrival="1764.00" arrivalLane="E40_0" arrivalPos="100.95" arrivalSpeed="10.20" duration="1677.00" routeLength="18194.75" waitingTime="0.00" waitingCount="0" stopTime="0.00" timeLoss="1026.52" rerouteNo="7" devices="tripinfo_7" vType="rail7@7" speedFactor="1.00" vaporized=""/>
    <tripinfo id="8" depart="109.00" departLane="E3_0" departPos="100.10" departSpeed="0.00" departDelay="0.00" arrival="1775.00" arrivalLane="E40_0" arrivalPos="100.95" arrivalSpeed="10.20" duration="1666.00" routeLength="18194.75" waitingTime="0.00" waitingCount="0" stopTime="0.00" timeLoss="1015.62" rerouteNo="7" devices="tripinfo_8" vType="rail8@8" speedFactor="1.00" vaporized=""/>
    <tripinfo id="9" depart="131.00" departLane="E3_0" departPos="100.10" departSpeed="0.00" departDelay="0.00" arrival="1787.00" arrivalLane="E40_0" arrivalPos="100.95" arrivalSpeed="10.20" duration="1656.00" routeLength="18194.75" waitingTime="0.00" waitingCount="0" stopTime="0.00" timeLoss="1005.51" rerouteNo="7" devices="tripinfo_9" vType="rail9@9" speedFactor="1.00" vaporized=""/>
    <tripinfo id="10" depart="153.00" departLane="E3_0" departPos="100.10" departSpeed="0.00" departDelay="0.00" arrival="1798.00" arrivalLane="E40_0" arrivalPos="100.95" arrivalSpeed="10.20" duration="1645.00" routeLength="18194.75" waitingTime="0.00" waitingCount="0" stopTime="0.00" timeLoss="996.74" rerouteNo="7" devices="tripinfo_10" vType="rail10@10" speedFactor="1.00" vaporized=""/>
    <tripinfo id="11" depart="175.00" departLane="E3_0" departPos="100.10" departSpeed="0.00" departDelay="0.00" arrival="1810.00" arrivalLane="E40_0" arrivalPos="100.95" arrivalSpeed="10.20" duration="1635.00" routeLength="18194.75" waitingTime="0.00" waitingCount="0" stopTime="0.00" timeLoss="986.63" rerouteNo="7" devices="tripinfo_11" vType="rail11@11" speedFactor="1.00" vaporized=""/>
    <tripinfo id="12" depart="197.00" departLane="E3_0" departPos="100.10" departSpeed="0.00" departDelay="0.00" arrival="1821.00" arrivalLane="E40_0" arrivalPos="100.95" arrivalSpeed="10.20" duration="1624.00" routeLength="18194.75" waitingTime="0.00" waitingCount="0" stopTime="0.00" timeLoss="973.75" rerouteNo="7" devices="tripinfo_12" vType="rail12@12" speedFactor="1.00" vaporized=""/>
    <tripinfo id="13" depart="219.00" departLane="E3_0" departPos="100.10" departSpeed="0.00" departDelay="0.00" arrival="1832.00" arrivalLane="E40_0" arrivalPos="100.95" arrivalSpeed="10.20" duration="1613.00" routeLength="18194.75" waitingTime="0.00" waitingCount="0" stopTime="0.00" timeLoss="960.76" rerouteNo="7" devices="tripinfo_13" vType="rail13@13" speedFactor="1.00" vaporized=""/>
    <tripinfo id="14" depart="241.00" departLane="E3_0" departPos="100.10" departSpeed="0.00" departDelay="0.00" arrival="1844.00" arrivalLane="E40_0" arrivalPos="100.95" arrivalSpeed="10.20" duration="1603.00" routeLength="18194.75" waitingTime="0.00" waitingCount="0" stopTime="0.00" timeLoss="954.54" rerouteNo="7" devices="tripinfo_14" vType="rail14@14" speedFactor="1.00" vaporized=""/>
    <tripinfo id="15" depart="263.00" departLane="E3_0" departPos="100.10" departSpeed="0.00" departDelay="0.00" arrival="1855.00" arrivalLane="E40_0" arrivalPos="100.95" arrivalSpeed="10.20" duration="1592.00" routeLength="18194.75" waitingTime="0.00" waitingCount="0" stopTime="0.00" timeLoss="943.75" rerouteNo="7" devices="tripinfo_15" vType="rail15@15" speedFactor="1.00" vaporized=""/>
    <tripinfo id="16" depart="285.00" departLane="E3_0" departPos="100.10" departSpeed="0.00" departDelay="0.00" arrival="1866.00" arrivalLane="E40_0" arrivalPos="100.95" arrivalSpeed="10.20" duration="1581.00" routeLength="18194.75" waitingTime="0.00" waitingCount="0" stopTime="0.00" timeLoss="929.12" rerouteNo="7" devices="tripinfo_16" vType="rail16@16" speedFactor="1.00" vaporized=""/>
    <tripinfo id="17" depart="307.00" departLane="E3_0" departPos="100.10" departSpeed="0.00" departDelay="0.00" arrival="1878.00" arrivalLane="E40_0" arrivalPos="100.95" arrivalSpeed="10.20" duration="1571.00" routeLength="18194.75" waitingTime="0.00" waitingCount="0" stopTime="0.00" timeLoss="922.81" rerouteNo="7" devices="tripinfo_17" vType="rail17@17" speedFactor="1.00" vaporized=""/>
    <tripinfo id="18" depart="329.00" departLane="E3_0" departPos="100.10" departSpeed="0.00" departDelay="0.00" arrival="1889.00" arrivalLane="E40_0" arrivalPos="100.95" arrivalSpeed="10.20" duration="1560.00" routeLength="18194.75" waitingTime="0.00" waitingCount="0" stopTime="0.00" timeLoss="908.22" rerouteNo="7" devices="tripinfo_18" vType="rail18@18" speedFactor="1.00" vaporized=""/>
    <tripinfo id="19" depart="351.00" departLane="E3_0" departPos="100.10" departSpeed="0.00" departDelay="0.00" arrival="1901.00" arrivalLane="E40_0" arrivalPos="100.95" arrivalSpeed="10.20" duration="1550.00" routeLength="18194.75" waitingTime="0.00" waitingCount="0" stopTime="0.00" timeLoss="901.61" rerouteNo="7" devices="tripinfo_19" vType="rail19@19" speedFactor="1.00" vaporized=""/>
    <tripinfo id="20" depart="373.00" departLane="E3_0" departPos="100.10" departSpeed="0.00" departDelay="0.00" arrival="1912.00" arrivalLane="E40_0" arrivalPos="100.95" arrivalSpeed="10.20" duration="1539.00" routeLength="13595.20" waitingTime="260.00" waitingCount="1" stopTime="0.00" timeLoss="1049.26" rerouteNo="5" devices="tripinfo_20" vType="rail20@20" speedFactor="1.00" vaporized=""/>
    <tripinfo id="21" depart="395.00" departLane="E3_0" departPos="100.10" departSpeed="0.00" departDelay="0.00" arrival="1924.00" arrivalLane="E40_0" arrivalPos="100.95" arrivalSpeed="10.20" duration="1529.00" routeLength="13595.20" waitingTime="251.00" waitingCount="1" stopTime="0.00" timeLoss="1038.83" rerouteNo="5" devices="tripinfo_21" vType="rail21@21" speedFactor="1.00" vaporized=""/>
    <tripinfo id="22" depart="417.00" departLane="E3_0" departPos="100.10" departSpeed="0.00" departDelay="0.00" arrival="1935.00" arrivalLane="E40_0" arrivalPos="100.95" arrivalSpeed="10.20" duration="1518.00" routeLength="8995.65" waitingTime="425.00" waitingCount="2" stopTime="0.00" timeLoss="1186.44" rerouteNo="3" devices="tripinfo_22" vType="rail22@22" speedFactor="1.00" vaporized=""/>
</tripinfos>
