<?xml version="1.0" encoding="UTF-8"?>

<!-- generated on 2022-06-13 11:30:41 by Eclipse SUMO GUI Version 1.13.0
<configuration xmlns:xsi="http://www.w3.org/2001/XMLSchema-instance" xsi:noNamespaceSchemaLocation="http://sumo.dlr.de/xsd/sumoConfiguration.xsd">

    <input>
        <net-file value="railvc.net.xml"/>
        <route-files value="railvc2.rou.xml"/>
        <additional-files value="railvc.add.xml"/>
    </input>

    <output>
        <tripinfo-output value="tripinfo.xml"/>
    </output>

    <traci_server>
        <remote-port value="56568"/>
    </traci_server>

</configuration>
-->

<tripinfos xmlns:xsi="http://www.w3.org/2001/XMLSchema-instance" xsi:noNamespaceSchemaLocation="http://sumo.dlr.de/xsd/tripinfo_file.xsd">
    <tripinfo id="1" depart="0.00" departLane="E2_0" departPos="120.10" departSpeed="0.00" departDelay="0.00" arrival="477.00" arrivalLane="E3_0" arrivalPos="194.50" arrivalSpeed="26.00" duration="477.00" routeLength="9667.97" waitingTime="0.00" waitingCount="0" stopTime="0.00" timeLoss="153.84" rerouteNo="7" devices="tripinfo_1" vType="rail1" speedFactor="1.00" vaporized=""/>
    <tripinfo id="2" depart="0.00" departLane="E1_0" departPos="100.10" departSpeed="0.00" departDelay="0.00" arrival="658.00" arrivalLane="E4_0" arrivalPos="121.12" arrivalSpeed="20.00" duration="658.00" routeLength="12952.21" waitingTime="0.00" waitingCount="0" stopTime="0.00" timeLoss="225.59" rerouteNo="8" devices="tripinfo_2" vType="rail2@2" speedFactor="1.00" vaporized=""/>
    <tripinfo id="3" depart="0.00" departLane="E18_0" departPos="70.08" departSpeed="0.00" departDelay="0.00" arrival="663.00" arrivalLane="E4_0" arrivalPos="121.12" arrivalSpeed="20.00" duration="663.00" routeLength="13258.12" waitingTime="0.00" waitingCount="0" stopTime="0.00" timeLoss="220.31" rerouteNo="8" devices="tripinfo_3" vType="rail3@3" speedFactor="1.00" vaporized=""/>
    <tripinfo id="4" depart="0.00" departLane="E16_0" departPos="85.34" departSpeed="0.00" departDelay="0.00" arrival="670.00" arrivalLane="E4_0" arrivalPos="121.12" arrivalSpeed="23.48" duration="670.00" routeLength="13413.36" waitingTime="0.00" waitingCount="0" stopTime="0.00" timeLoss="222.32" rerouteNo="8" devices="tripinfo_4" vType="rail4" speedFactor="1.00" vaporized=""/>
</tripinfos>
