<?xml version="1.0" encoding="UTF-8"?>

<!-- generated on 2022-08-16 17:01:44 by Eclipse SUMO GUI Version 1.13.0
<configuration xmlns:xsi="http://www.w3.org/2001/XMLSchema-instance" xsi:noNamespaceSchemaLocation="http://sumo.dlr.de/xsd/sumoConfiguration.xsd">

    <input>
        <net-file value="newNetRailvc2.net.xml"/>
        <route-files value="railvc2.rou.xml"/>
        <additional-files value="railvc2.add.xml"/>
    </input>

    <output>
        <tripinfo-output value="tripinfo.xml"/>
    </output>

    <processing>
        <time-to-teleport value="-1"/>
    </processing>

    <traci_server>
        <remote-port value="55821"/>
    </traci_server>

</configuration>
-->

<tripinfos xmlns:xsi="http://www.w3.org/2001/XMLSchema-instance" xsi:noNamespaceSchemaLocation="http://sumo.dlr.de/xsd/tripinfo_file.xsd">
    <tripinfo id="0" depart="0.00" departLane="E1_0" departPos="100.10" departSpeed="0.00" departDelay="0.00" arrival="362.00" arrivalLane="E48_0" arrivalPos="100.00" arrivalSpeed="15.00" duration="362.00" routeLength="5266.37" waitingTime="0.00" waitingCount="0" stopTime="0.00" timeLoss="124.95" rerouteNo="3" devices="tripinfo_0" vType="rail0" speedFactor="1.00" vaporized=""/>
    <tripinfo id="1" depart="0.00" departLane="E2_0" departPos="100.10" departSpeed="0.00" departDelay="0.00" arrival="387.00" arrivalLane="E51_0" arrivalPos="100.00" arrivalSpeed="14.00" duration="387.00" routeLength="5292.63" waitingTime="0.00" waitingCount="0" stopTime="0.00" timeLoss="144.44" rerouteNo="3" devices="tripinfo_1" vType="rail1@1" speedFactor="1.00" vaporized=""/>
    <tripinfo id="2" depart="0.00" departLane="E3_0" departPos="100.10" departSpeed="0.00" departDelay="0.00" arrival="743.00" arrivalLane="E48_0" arrivalPos="100.00" arrivalSpeed="14.00" duration="743.00" routeLength="9969.27" waitingTime="9.00" waitingCount="1" stopTime="0.00" timeLoss="306.61" rerouteNo="5" devices="tripinfo_2" vType="rail2@2" speedFactor="1.00" vaporized=""/>
    <tripinfo id="3" depart="18.00" departLane="E3_0" departPos="100.10" departSpeed="0.00" departDelay="17.00" arrival="762.00" arrivalLane="E51_0" arrivalPos="100.00" arrivalSpeed="14.00" duration="744.00" routeLength="9968.78" waitingTime="1.00" waitingCount="1" stopTime="0.00" timeLoss="308.21" rerouteNo="5" devices="tripinfo_3" vType="rail3@3" speedFactor="1.00" vaporized=""/>
    <tripinfo id="4" depart="37.00" departLane="E3_0" departPos="100.10" departSpeed="0.00" departDelay="14.00" arrival="1118.00" arrivalLane="E48_0" arrivalPos="100.00" arrivalSpeed="14.00" duration="1081.00" routeLength="14622.18" waitingTime="2.00" waitingCount="1" stopTime="0.00" timeLoss="458.25" rerouteNo="7" devices="tripinfo_4" vType="rail4@4" speedFactor="1.00" vaporized=""/>
    <tripinfo id="5" depart="62.00" departLane="E3_0" departPos="100.10" departSpeed="0.00" departDelay="17.00" arrival="1137.00" arrivalLane="E51_0" arrivalPos="100.00" arrivalSpeed="14.00" duration="1075.00" routeLength="14621.69" waitingTime="1.00" waitingCount="1" stopTime="0.00" timeLoss="453.32" rerouteNo="7" devices="tripinfo_5" vType="rail5@5" speedFactor="1.00" vaporized=""/>
    <tripinfo id="6" depart="83.00" departLane="E3_0" departPos="100.10" departSpeed="0.00" departDelay="16.00" arrival="1492.00" arrivalLane="E48_0" arrivalPos="100.00" arrivalSpeed="14.00" duration="1409.00" routeLength="19275.09" waitingTime="0.00" waitingCount="0" stopTime="0.00" timeLoss="595.19" rerouteNo="9" devices="tripinfo_6" vType="rail6@6" speedFactor="1.00" vaporized=""/>
    <tripinfo id="7" depart="103.00" departLane="E3_0" departPos="100.10" departSpeed="0.00" departDelay="14.00" arrival="1512.00" arrivalLane="E51_0" arrivalPos="100.00" arrivalSpeed="14.00" duration="1409.00" routeLength="19274.60" waitingTime="1.00" waitingCount="1" stopTime="0.00" timeLoss="600.24" rerouteNo="9" devices="tripinfo_7" vType="rail7@7" speedFactor="1.00" vaporized=""/>
    <tripinfo id="8" depart="123.00" departLane="E3_0" departPos="100.10" departSpeed="0.00" departDelay="12.00" arrival="1869.00" arrivalLane="E48_0" arrivalPos="100.00" arrivalSpeed="14.00" duration="1746.00" routeLength="23928.00" waitingTime="0.00" waitingCount="0" stopTime="0.00" timeLoss="747.02" rerouteNo="11" devices="tripinfo_8" vType="rail8@8" speedFactor="1.00" vaporized=""/>
    <tripinfo id="9" depart="144.00" departLane="E3_0" departPos="100.10" departSpeed="0.00" departDelay="11.00" arrival="1889.00" arrivalLane="E51_0" arrivalPos="100.00" arrivalSpeed="14.00" duration="1745.00" routeLength="23927.51" waitingTime="9.00" waitingCount="2" stopTime="0.00" timeLoss="749.46" rerouteNo="11" devices="tripinfo_9" vType="rail9@9" speedFactor="1.00" vaporized=""/>
    <tripinfo id="10" depart="165.00" departLane="E3_0" departPos="100.10" departSpeed="0.00" departDelay="10.00" arrival="2245.00" arrivalLane="E48_0" arrivalPos="100.00" arrivalSpeed="14.00" duration="2080.00" routeLength="28580.91" waitingTime="1.00" waitingCount="1" stopTime="0.00" timeLoss="889.04" rerouteNo="13" devices="tripinfo_10" vType="rail10@10" speedFactor="1.00" vaporized=""/>
    <tripinfo id="11" depart="184.00" departLane="E3_0" departPos="100.10" departSpeed="0.00" departDelay="7.00" arrival="2256.00" arrivalLane="E51_0" arrivalPos="100.00" arrivalSpeed="14.00" duration="2072.00" routeLength="28580.42" waitingTime="1.00" waitingCount="1" stopTime="0.00" timeLoss="886.97" rerouteNo="13" devices="tripinfo_11" vType="rail11@11" speedFactor="1.00" vaporized=""/>
</tripinfos>
