<?xml version="1.0" encoding="UTF-8"?>

<!-- generated on 2022-07-28 15:29:46 by Eclipse SUMO GUI Version 1.13.0
<configuration xmlns:xsi="http://www.w3.org/2001/XMLSchema-instance" xsi:noNamespaceSchemaLocation="http://sumo.dlr.de/xsd/sumoConfiguration.xsd">

    <input>
        <net-file value="railvc2.net.xml"/>
        <route-files value="railvc2.rou.xml"/>
        <additional-files value="railvc2.add.xml"/>
    </input>

    <output>
        <tripinfo-output value="tripinfo.xml"/>
    </output>

    <traci_server>
        <remote-port value="51611"/>
    </traci_server>

</configuration>
-->

<tripinfos xmlns:xsi="http://www.w3.org/2001/XMLSchema-instance" xsi:noNamespaceSchemaLocation="http://sumo.dlr.de/xsd/tripinfo_file.xsd">
    <tripinfo id="0" depart="0.00" departLane="E1_0" departPos="100.10" departSpeed="0.00" departDelay="0.00" arrival="362.00" arrivalLane="E48_0" arrivalPos="100.00" arrivalSpeed="15.00" duration="362.00" routeLength="5266.65" waitingTime="0.00" waitingCount="0" stopTime="0.00" timeLoss="126.09" rerouteNo="3" devices="tripinfo_0" vType="rail0" speedFactor="1.00" vaporized=""/>
    <tripinfo id="1" depart="0.00" departLane="E2_0" departPos="100.10" departSpeed="0.00" departDelay="0.00" arrival="387.00" arrivalLane="E51_0" arrivalPos="100.00" arrivalSpeed="14.00" duration="387.00" routeLength="5292.91" waitingTime="0.00" waitingCount="0" stopTime="0.00" timeLoss="145.52" rerouteNo="3" devices="tripinfo_1" vType="rail1@1" speedFactor="1.00" vaporized=""/>
    <tripinfo id="2" depart="0.00" departLane="E3_0" departPos="100.10" departSpeed="0.00" departDelay="0.00" arrival="742.00" arrivalLane="E48_0" arrivalPos="100.00" arrivalSpeed="14.00" duration="742.00" routeLength="9969.83" waitingTime="8.00" waitingCount="1" stopTime="0.00" timeLoss="310.10" rerouteNo="5" devices="tripinfo_2" vType="rail2@2" speedFactor="1.00" vaporized=""/>
    <tripinfo id="3" depart="18.00" departLane="E3_0" departPos="100.10" departSpeed="0.00" departDelay="17.00" arrival="763.00" arrivalLane="E51_0" arrivalPos="100.00" arrivalSpeed="14.00" duration="745.00" routeLength="9969.34" waitingTime="2.00" waitingCount="2" stopTime="0.00" timeLoss="311.04" rerouteNo="5" devices="tripinfo_3" vType="rail3@3" speedFactor="1.00" vaporized=""/>
    <tripinfo id="4" depart="37.00" departLane="E3_0" departPos="100.10" departSpeed="0.00" departDelay="14.00" arrival="1119.00" arrivalLane="E48_0" arrivalPos="100.00" arrivalSpeed="14.00" duration="1082.00" routeLength="14623.02" waitingTime="1.00" waitingCount="1" stopTime="0.00" timeLoss="463.93" rerouteNo="7" devices="tripinfo_4" vType="rail4@4" speedFactor="1.00" vaporized=""/>
    <tripinfo id="5" depart="60.00" departLane="E3_0" departPos="100.10" departSpeed="0.00" departDelay="15.00" arrival="1140.00" arrivalLane="E51_0" arrivalPos="100.00" arrivalSpeed="14.00" duration="1080.00" routeLength="14622.53" waitingTime="3.00" waitingCount="3" stopTime="0.00" timeLoss="461.87" rerouteNo="7" devices="tripinfo_5" vType="rail5@5" speedFactor="1.00" vaporized=""/>
    <tripinfo id="6" depart="82.00" departLane="E3_0" departPos="100.10" departSpeed="0.00" departDelay="15.00" arrival="1496.00" arrivalLane="E48_0" arrivalPos="100.00" arrivalSpeed="14.00" duration="1414.00" routeLength="19276.21" waitingTime="4.00" waitingCount="3" stopTime="0.00" timeLoss="604.54" rerouteNo="9" devices="tripinfo_6" vType="rail6@6" speedFactor="1.00" vaporized=""/>
    <tripinfo id="7" depart="103.00" departLane="E3_0" departPos="100.10" departSpeed="0.00" departDelay="14.00" arrival="1517.00" arrivalLane="E51_0" arrivalPos="100.00" arrivalSpeed="14.00" duration="1414.00" routeLength="19275.72" waitingTime="0.00" waitingCount="0" stopTime="0.00" timeLoss="608.23" rerouteNo="9" devices="tripinfo_7" vType="rail7@7" speedFactor="1.00" vaporized=""/>
    <tripinfo id="8" depart="123.00" departLane="E3_0" departPos="100.10" departSpeed="0.00" departDelay="12.00" arrival="1872.00" arrivalLane="E48_0" arrivalPos="100.00" arrivalSpeed="14.00" duration="1749.00" routeLength="23929.40" waitingTime="4.00" waitingCount="4" stopTime="0.00" timeLoss="754.07" rerouteNo="11" devices="tripinfo_8" vType="rail8@8" speedFactor="1.00" vaporized=""/>
    <tripinfo id="9" depart="144.00" departLane="E3_0" departPos="100.10" departSpeed="0.00" departDelay="11.00" arrival="1894.00" arrivalLane="E51_0" arrivalPos="100.00" arrivalSpeed="14.00" duration="1750.00" routeLength="23928.91" waitingTime="4.00" waitingCount="4" stopTime="0.00" timeLoss="757.54" rerouteNo="11" devices="tripinfo_9" vType="rail9@9" speedFactor="1.00" vaporized=""/>
    <tripinfo id="10" depart="166.00" departLane="E3_0" departPos="100.10" departSpeed="0.00" departDelay="11.00" arrival="2249.00" arrivalLane="E48_0" arrivalPos="100.00" arrivalSpeed="14.00" duration="2083.00" routeLength="28582.59" waitingTime="5.00" waitingCount="4" stopTime="0.00" timeLoss="904.74" rerouteNo="13" devices="tripinfo_10" vType="rail10@10" speedFactor="1.00" vaporized=""/>
    <tripinfo id="11" depart="187.00" departLane="E3_0" departPos="100.10" departSpeed="0.00" departDelay="10.00" arrival="2272.00" arrivalLane="E51_0" arrivalPos="100.00" arrivalSpeed="14.00" duration="2085.00" routeLength="28582.10" waitingTime="11.00" waitingCount="6" stopTime="0.00" timeLoss="906.20" rerouteNo="13" devices="tripinfo_11" vType="rail11@11" speedFactor="1.00" vaporized=""/>
    <tripinfo id="12" depart="208.00" departLane="E3_0" departPos="100.10" departSpeed="0.00" departDelay="9.00" arrival="2628.00" arrivalLane="E48_0" arrivalPos="100.00" arrivalSpeed="14.00" duration="2420.00" routeLength="33235.78" waitingTime="6.00" waitingCount="5" stopTime="0.00" timeLoss="1054.02" rerouteNo="15" devices="tripinfo_12" vType="rail12@12" speedFactor="1.00" vaporized=""/>
    <tripinfo id="13" depart="230.00" departLane="E3_0" departPos="100.10" departSpeed="0.00" departDelay="9.00" arrival="2649.00" arrivalLane="E51_0" arrivalPos="100.00" arrivalSpeed="14.00" duration="2419.00" routeLength="33235.29" waitingTime="6.00" waitingCount="5" stopTime="0.00" timeLoss="1051.62" rerouteNo="15" devices="tripinfo_13" vType="rail13@13" speedFactor="1.00" vaporized=""/>
    <tripinfo id="14" depart="252.00" departLane="E3_0" departPos="100.10" departSpeed="0.00" departDelay="9.00" arrival="3005.00" arrivalLane="E48_0" arrivalPos="100.00" arrivalSpeed="14.00" duration="2753.00" routeLength="37888.97" waitingTime="40.00" waitingCount="7" stopTime="0.00" timeLoss="1200.36" rerouteNo="17" devices="tripinfo_14" vType="rail14@14" speedFactor="1.00" vaporized=""/>
    <tripinfo id="15" depart="274.00" departLane="E3_0" departPos="100.10" departSpeed="0.00" departDelay="9.00" arrival="3361.00" arrivalLane="E48_0" arrivalPos="100.00" arrivalSpeed="14.00" duration="3087.00" routeLength="42542.16" waitingTime="60.00" waitingCount="7" stopTime="0.00" timeLoss="1347.57" rerouteNo="20" devices="tripinfo_15" vType="rail15@15" speedFactor="1.00" vaporized=""/>
</tripinfos>
