<?xml version="1.0" encoding="UTF-8"?>

<!-- generated on 2022-07-22 15:30:34 by Eclipse SUMO GUI Version 1.13.0
<configuration xmlns:xsi="http://www.w3.org/2001/XMLSchema-instance" xsi:noNamespaceSchemaLocation="http://sumo.dlr.de/xsd/sumoConfiguration.xsd">

    <input>
        <net-file value="railvc2.net.xml"/>
        <route-files value="railvc2.rou.xml"/>
        <additional-files value="railvc2.add.xml"/>
    </input>

    <output>
        <tripinfo-output value="tripinfo.xml"/>
    </output>

    <traci_server>
        <remote-port value="65023"/>
    </traci_server>

</configuration>
-->

<tripinfos xmlns:xsi="http://www.w3.org/2001/XMLSchema-instance" xsi:noNamespaceSchemaLocation="http://sumo.dlr.de/xsd/tripinfo_file.xsd">
    <tripinfo id="1" depart="0.00" departLane="E1_0" departPos="100.10" departSpeed="0.00" departDelay="0.00" arrival="362.00" arrivalLane="E48_0" arrivalPos="100.00" arrivalSpeed="15.00" duration="362.00" routeLength="5266.65" waitingTime="0.00" waitingCount="0" stopTime="0.00" timeLoss="126.09" rerouteNo="3" devices="tripinfo_1" vType="rail1" speedFactor="1.00" vaporized=""/>
    <tripinfo id="2" depart="0.00" departLane="E2_0" departPos="100.10" departSpeed="0.00" departDelay="0.00" arrival="387.00" arrivalLane="E51_0" arrivalPos="100.00" arrivalSpeed="14.00" duration="387.00" routeLength="5292.91" waitingTime="0.00" waitingCount="0" stopTime="0.00" timeLoss="145.52" rerouteNo="3" devices="tripinfo_2" vType="rail2@2" speedFactor="1.00" vaporized=""/>
    <tripinfo id="3" depart="0.00" departLane="E3_0" departPos="100.10" departSpeed="0.00" departDelay="0.00" arrival="742.00" arrivalLane="E48_0" arrivalPos="100.00" arrivalSpeed="14.00" duration="742.00" routeLength="9969.83" waitingTime="8.00" waitingCount="1" stopTime="0.00" timeLoss="310.10" rerouteNo="5" devices="tripinfo_3" vType="rail3@3" speedFactor="1.00" vaporized=""/>
    <tripinfo id="4" depart="21.00" departLane="E3_0" departPos="100.10" departSpeed="0.00" departDelay="0.00" arrival="761.00" arrivalLane="E51_0" arrivalPos="100.00" arrivalSpeed="14.00" duration="740.00" routeLength="9969.34" waitingTime="0.00" waitingCount="0" stopTime="0.00" timeLoss="307.06" rerouteNo="5" devices="tripinfo_4" vType="rail4@4" speedFactor="1.00" vaporized=""/>
    <tripinfo id="5" depart="43.00" departLane="E3_0" departPos="100.10" departSpeed="0.00" departDelay="0.00" arrival="1117.00" arrivalLane="E48_0" arrivalPos="100.00" arrivalSpeed="14.00" duration="1074.00" routeLength="14623.02" waitingTime="0.00" waitingCount="0" stopTime="0.00" timeLoss="456.66" rerouteNo="7" devices="tripinfo_5" vType="rail5@5" speedFactor="1.00" vaporized=""/>
    <tripinfo id="6" depart="65.00" departLane="E3_0" departPos="100.10" departSpeed="0.00" departDelay="0.00" arrival="1137.00" arrivalLane="E51_0" arrivalPos="100.00" arrivalSpeed="14.00" duration="1072.00" routeLength="14622.53" waitingTime="0.00" waitingCount="0" stopTime="0.00" timeLoss="454.60" rerouteNo="7" devices="tripinfo_6" vType="rail6@6" speedFactor="1.00" vaporized=""/>
    <tripinfo id="7" depart="87.00" departLane="E3_0" departPos="100.10" departSpeed="0.00" departDelay="0.00" arrival="1494.00" arrivalLane="E48_0" arrivalPos="100.00" arrivalSpeed="14.00" duration="1407.00" routeLength="19276.21" waitingTime="0.00" waitingCount="0" stopTime="0.00" timeLoss="601.76" rerouteNo="9" devices="tripinfo_7" vType="rail7@7" speedFactor="1.00" vaporized=""/>
    <tripinfo id="8" depart="109.00" departLane="E3_0" departPos="100.10" departSpeed="0.00" departDelay="0.00" arrival="1515.00" arrivalLane="E51_0" arrivalPos="100.00" arrivalSpeed="14.00" duration="1406.00" routeLength="19275.72" waitingTime="0.00" waitingCount="0" stopTime="0.00" timeLoss="600.92" rerouteNo="9" devices="tripinfo_8" vType="rail8@8" speedFactor="1.00" vaporized=""/>
    <tripinfo id="9" depart="131.00" departLane="E3_0" departPos="100.10" departSpeed="0.00" departDelay="0.00" arrival="1871.00" arrivalLane="E48_0" arrivalPos="100.00" arrivalSpeed="14.00" duration="1740.00" routeLength="23929.40" waitingTime="0.00" waitingCount="0" stopTime="0.00" timeLoss="748.29" rerouteNo="11" devices="tripinfo_9" vType="rail9@9" speedFactor="1.00" vaporized=""/>
    <tripinfo id="10" depart="153.00" departLane="E3_0" departPos="100.10" departSpeed="0.00" departDelay="0.00" arrival="1891.00" arrivalLane="E51_0" arrivalPos="100.00" arrivalSpeed="14.00" duration="1738.00" routeLength="23928.91" waitingTime="1.00" waitingCount="1" stopTime="0.00" timeLoss="742.58" rerouteNo="11" devices="tripinfo_10" vType="rail10@10" speedFactor="1.00" vaporized=""/>
    <tripinfo id="11" depart="175.00" departLane="E3_0" departPos="100.10" departSpeed="0.00" departDelay="0.00" arrival="2248.00" arrivalLane="E48_0" arrivalPos="100.00" arrivalSpeed="14.00" duration="2073.00" routeLength="28582.59" waitingTime="1.00" waitingCount="1" stopTime="0.00" timeLoss="894.10" rerouteNo="13" devices="tripinfo_11" vType="rail11@11" speedFactor="1.00" vaporized=""/>
    <tripinfo id="12" depart="197.00" departLane="E3_0" departPos="100.10" departSpeed="0.00" departDelay="0.00" arrival="2269.00" arrivalLane="E51_0" arrivalPos="100.00" arrivalSpeed="14.00" duration="2072.00" routeLength="28582.10" waitingTime="12.00" waitingCount="2" stopTime="0.00" timeLoss="887.08" rerouteNo="13" devices="tripinfo_12" vType="rail12@12" speedFactor="1.00" vaporized=""/>
    <tripinfo id="13" depart="219.00" departLane="E3_0" departPos="100.10" departSpeed="0.00" departDelay="0.00" arrival="2624.00" arrivalLane="E48_0" arrivalPos="100.00" arrivalSpeed="14.00" duration="2405.00" routeLength="33235.78" waitingTime="9.00" waitingCount="2" stopTime="0.00" timeLoss="1037.00" rerouteNo="15" devices="tripinfo_13" vType="rail13@13" speedFactor="1.00" vaporized=""/>
    <tripinfo id="14" depart="241.00" departLane="E3_0" departPos="100.10" departSpeed="0.00" departDelay="0.00" arrival="2645.00" arrivalLane="E51_0" arrivalPos="100.00" arrivalSpeed="14.00" duration="2404.00" routeLength="33235.29" waitingTime="1.00" waitingCount="1" stopTime="0.00" timeLoss="1039.38" rerouteNo="15" devices="tripinfo_14" vType="rail14@14" speedFactor="1.00" vaporized=""/>
    <tripinfo id="15" depart="263.00" departLane="E3_0" departPos="100.10" departSpeed="0.00" departDelay="0.00" arrival="3002.00" arrivalLane="E48_0" arrivalPos="100.00" arrivalSpeed="14.00" duration="2739.00" routeLength="37888.97" waitingTime="0.00" waitingCount="0" stopTime="0.00" timeLoss="1181.55" rerouteNo="17" devices="tripinfo_15" vType="rail15@15" speedFactor="1.00" vaporized=""/>
    <tripinfo id="16" depart="285.00" departLane="E3_0" departPos="100.10" departSpeed="0.00" departDelay="0.00" arrival="3359.00" arrivalLane="E6_0" arrivalPos="392.12" arrivalSpeed="14.00" duration="3074.00" routeLength="42601.38" waitingTime="0.00" waitingCount="0" stopTime="0.00" timeLoss="1339.19" rerouteNo="18" devices="tripinfo_16" vType="rail16@16" speedFactor="1.00" vaporized=""/>
</tripinfos>
