<?xml version="1.0" encoding="UTF-8"?>

<!-- generated on 2022-09-21 11:25:14 by Eclipse SUMO GUI Version 1.14.1
<configuration xmlns:xsi="http://www.w3.org/2001/XMLSchema-instance" xsi:noNamespaceSchemaLocation="http://sumo.dlr.de/xsd/sumoConfiguration.xsd">

    <input>
        <net-file value="railvc2.net.xml"/>
        <route-files value="railvc2.rou.xml"/>
        <additional-files value="railvc2.add.xml"/>
    </input>

    <output>
        <tripinfo-output value="tripinfo.xml"/>
    </output>

    <processing>
        <time-to-teleport value="-1"/>
    </processing>

    <traci_server>
        <remote-port value="61571"/>
    </traci_server>

</configuration>
-->

<tripinfos xmlns:xsi="http://www.w3.org/2001/XMLSchema-instance" xsi:noNamespaceSchemaLocation="http://sumo.dlr.de/xsd/tripinfo_file.xsd">
    <tripinfo id="0" depart="0.00" departLane="E1_0" departPos="100.10" departSpeed="0.00" departDelay="0.00" arrival="362.00" arrivalLane="E48_0" arrivalPos="100.00" arrivalSpeed="15.00" duration="362.00" routeLength="5266.37" waitingTime="0.00" waitingCount="0" stopTime="0.00" timeLoss="124.95" rerouteNo="3" devices="tripinfo_0" vType="rail0" speedFactor="1.00" vaporized=""/>
    <tripinfo id="1" depart="0.00" departLane="E2_0" departPos="100.10" departSpeed="0.00" departDelay="0.00" arrival="381.00" arrivalLane="E51_0" arrivalPos="100.00" arrivalSpeed="15.00" duration="381.00" routeLength="5292.63" waitingTime="0.00" waitingCount="0" stopTime="0.00" timeLoss="139.25" rerouteNo="3" devices="tripinfo_1" vType="rail1@1" speedFactor="1.00" vaporized=""/>
    <tripinfo id="2" depart="0.00" departLane="E3_0" departPos="100.10" departSpeed="0.00" departDelay="0.00" arrival="716.00" arrivalLane="E48_0" arrivalPos="100.00" arrivalSpeed="15.00" duration="716.00" routeLength="9969.27" waitingTime="9.00" waitingCount="1" stopTime="0.00" timeLoss="282.01" rerouteNo="5" devices="tripinfo_2" vType="rail2@2" speedFactor="1.00" vaporized=""/>
    <tripinfo id="3" depart="18.00" departLane="E3_0" departPos="100.10" departSpeed="0.00" departDelay="17.00" arrival="737.00" arrivalLane="E51_0" arrivalPos="100.00" arrivalSpeed="15.00" duration="719.00" routeLength="9968.78" waitingTime="3.00" waitingCount="3" stopTime="0.00" timeLoss="285.27" rerouteNo="5" devices="tripinfo_3" vType="rail3@3" speedFactor="1.00" vaporized=""/>
    <tripinfo id="4" depart="37.00" departLane="E3_0" departPos="100.10" departSpeed="0.00" departDelay="14.00" arrival="1070.00" arrivalLane="E48_0" arrivalPos="100.00" arrivalSpeed="15.00" duration="1033.00" routeLength="14622.18" waitingTime="3.00" waitingCount="2" stopTime="0.00" timeLoss="410.88" rerouteNo="7" devices="tripinfo_4" vType="rail4@4" speedFactor="1.00" vaporized=""/>
    <tripinfo id="5" depart="62.00" departLane="E3_0" departPos="100.10" departSpeed="0.00" departDelay="17.00" arrival="1090.00" arrivalLane="E51_0" arrivalPos="100.00" arrivalSpeed="15.00" duration="1028.00" routeLength="14621.69" waitingTime="3.00" waitingCount="2" stopTime="0.00" timeLoss="405.94" rerouteNo="7" devices="tripinfo_5" vType="rail5@5" speedFactor="1.00" vaporized=""/>
    <tripinfo id="6" depart="83.00" departLane="E3_0" departPos="100.10" departSpeed="0.00" departDelay="16.00" arrival="1423.00" arrivalLane="E48_0" arrivalPos="100.00" arrivalSpeed="15.00" duration="1340.00" routeLength="19275.09" waitingTime="4.00" waitingCount="3" stopTime="0.00" timeLoss="530.11" rerouteNo="9" devices="tripinfo_6" vType="rail6@6" speedFactor="1.00" vaporized=""/>
    <tripinfo id="7" depart="103.00" departLane="E3_0" departPos="100.10" departSpeed="0.00" departDelay="14.00" arrival="1442.00" arrivalLane="E51_0" arrivalPos="100.00" arrivalSpeed="15.00" duration="1339.00" routeLength="19274.60" waitingTime="2.00" waitingCount="2" stopTime="0.00" timeLoss="529.23" rerouteNo="9" devices="tripinfo_7" vType="rail7@7" speedFactor="1.00" vaporized=""/>
    <tripinfo id="8" depart="123.00" departLane="E3_0" departPos="100.10" departSpeed="0.00" departDelay="12.00" arrival="1775.00" arrivalLane="E48_0" arrivalPos="100.00" arrivalSpeed="15.00" duration="1652.00" routeLength="23928.00" waitingTime="3.00" waitingCount="1" stopTime="0.00" timeLoss="654.30" rerouteNo="11" devices="tripinfo_8" vType="rail8@8" speedFactor="1.00" vaporized=""/>
    <tripinfo id="9" depart="144.00" departLane="E3_0" departPos="100.10" departSpeed="0.00" departDelay="11.00" arrival="1795.00" arrivalLane="E51_0" arrivalPos="100.00" arrivalSpeed="15.00" duration="1651.00" routeLength="23927.51" waitingTime="5.00" waitingCount="2" stopTime="0.00" timeLoss="654.01" rerouteNo="11" devices="tripinfo_9" vType="rail9@9" speedFactor="1.00" vaporized=""/>
    <tripinfo id="10" depart="165.00" departLane="E3_0" departPos="100.10" departSpeed="0.00" departDelay="10.00" arrival="2128.00" arrivalLane="E48_0" arrivalPos="100.00" arrivalSpeed="15.00" duration="1963.00" routeLength="28580.91" waitingTime="8.00" waitingCount="3" stopTime="0.00" timeLoss="775.13" rerouteNo="13" devices="tripinfo_10" vType="rail10@10" speedFactor="1.00" vaporized=""/>
    <tripinfo id="11" depart="184.00" departLane="E3_0" departPos="100.10" departSpeed="0.00" departDelay="7.00" arrival="2148.00" arrivalLane="E51_0" arrivalPos="100.00" arrivalSpeed="15.00" duration="1964.00" routeLength="28580.42" waitingTime="8.00" waitingCount="4" stopTime="0.00" timeLoss="779.64" rerouteNo="13" devices="tripinfo_11" vType="rail11@11" speedFactor="1.00" vaporized=""/>
    <tripinfo id="12" depart="209.00" departLane="E3_0" departPos="100.10" departSpeed="0.00" departDelay="10.00" arrival="2481.00" arrivalLane="E48_0" arrivalPos="100.00" arrivalSpeed="15.00" duration="2272.00" routeLength="33233.82" waitingTime="10.00" waitingCount="4" stopTime="0.00" timeLoss="898.18" rerouteNo="15" devices="tripinfo_12" vType="rail12@12" speedFactor="1.00" vaporized=""/>
    <tripinfo id="13" depart="230.00" departLane="E3_0" departPos="100.10" departSpeed="0.00" departDelay="9.00" arrival="2500.00" arrivalLane="E51_0" arrivalPos="100.00" arrivalSpeed="15.00" duration="2270.00" routeLength="33233.33" waitingTime="34.00" waitingCount="4" stopTime="0.00" timeLoss="896.59" rerouteNo="15" devices="tripinfo_13" vType="rail13@13" speedFactor="1.00" vaporized=""/>
    <tripinfo id="14" depart="252.00" departLane="E3_0" departPos="100.10" departSpeed="0.00" departDelay="9.00" arrival="2833.00" arrivalLane="E48_0" arrivalPos="100.00" arrivalSpeed="15.00" duration="2581.00" routeLength="37886.73" waitingTime="68.00" waitingCount="6" stopTime="0.00" timeLoss="1017.60" rerouteNo="17" devices="tripinfo_14" vType="rail14@14" speedFactor="1.00" vaporized=""/>
    <tripinfo id="15" depart="274.00" departLane="E3_0" departPos="100.10" departSpeed="0.00" departDelay="9.00" arrival="2854.00" arrivalLane="E51_0" arrivalPos="100.00" arrivalSpeed="15.00" duration="2580.00" routeLength="37886.24" waitingTime="85.00" waitingCount="12" stopTime="0.00" timeLoss="1017.17" rerouteNo="17" devices="tripinfo_15" vType="rail15@15" speedFactor="1.00" vaporized=""/>
    <tripinfo id="16" depart="297.00" departLane="E3_0" departPos="100.10" departSpeed="0.00" departDelay="10.00" arrival="3187.00" arrivalLane="E48_0" arrivalPos="100.00" arrivalSpeed="15.00" duration="2890.00" routeLength="37886.73" waitingTime="211.00" waitingCount="8" stopTime="0.00" timeLoss="1325.05" rerouteNo="17" devices="tripinfo_16" vType="rail16@16" speedFactor="1.00" vaporized=""/>
    <tripinfo id="17" depart="322.00" departLane="E3_0" departPos="100.10" departSpeed="0.00" departDelay="13.00" arrival="3206.00" arrivalLane="E51_0" arrivalPos="100.00" arrivalSpeed="15.00" duration="2884.00" routeLength="37886.24" waitingTime="241.00" waitingCount="8" stopTime="0.00" timeLoss="1314.00" rerouteNo="17" devices="tripinfo_17" vType="rail17@17" speedFactor="1.00" vaporized=""/>
    <tripinfo id="18" depart="544.00" departLane="E3_0" departPos="100.10" departSpeed="0.00" departDelay="213.00" arrival="3539.00" arrivalLane="E48_0" arrivalPos="100.00" arrivalSpeed="15.00" duration="2995.00" routeLength="42539.64" waitingTime="132.00" waitingCount="7" stopTime="0.00" timeLoss="1238.17" rerouteNo="19" devices="tripinfo_18" vType="rail18@18" speedFactor="1.00" vaporized=""/>
    <tripinfo id="19" depart="563.00" departLane="E3_0" departPos="100.10" departSpeed="0.00" departDelay="210.00" arrival="3560.00" arrivalLane="E51_0" arrivalPos="100.00" arrivalSpeed="15.00" duration="2997.00" routeLength="42539.15" waitingTime="195.00" waitingCount="7" stopTime="0.00" timeLoss="1243.18" rerouteNo="19" devices="tripinfo_19" vType="rail19@19" speedFactor="1.00" vaporized=""/>
    <tripinfo id="20" depart="583.00" departLane="E3_0" departPos="100.10" departSpeed="0.00" departDelay="208.00" arrival="3809.00" arrivalLane="E29_0" arrivalPos="109.67" arrivalSpeed="15.00" duration="3226.00" routeLength="41278.17" waitingTime="412.00" waitingCount="12" stopTime="0.00" timeLoss="1562.11" rerouteNo="17" devices="tripinfo_20" vType="rail20@20" speedFactor="1.00" vaporized=""/>
    <tripinfo id="21" depart="612.00" departLane="E3_0" departPos="100.10" departSpeed="0.00" departDelay="215.00" arrival="3901.00" arrivalLane="E48_0" arrivalPos="100.00" arrivalSpeed="15.00" duration="3289.00" routeLength="42539.64" waitingTime="602.00" waitingCount="12" stopTime="0.00" timeLoss="1531.45" rerouteNo="18" devices="tripinfo_21" vType="rail21@21" speedFactor="1.00" vaporized=""/>
</tripinfos>
