<?xml version="1.0" encoding="UTF-8"?>

<!-- generated on 2022-06-16 18:20:49 by Eclipse SUMO GUI Version 1.13.0
<configuration xmlns:xsi="http://www.w3.org/2001/XMLSchema-instance" xsi:noNamespaceSchemaLocation="http://sumo.dlr.de/xsd/sumoConfiguration.xsd">

    <input>
        <net-file value="railvc2.net.xml"/>
        <route-files value="railvc2.rou.xml"/>
        <additional-files value="railvc2.add.xml"/>
    </input>

    <output>
        <tripinfo-output value="tripinfo.xml"/>
    </output>

    <traci_server>
        <remote-port value="50514"/>
    </traci_server>

</configuration>
-->

<tripinfos xmlns:xsi="http://www.w3.org/2001/XMLSchema-instance" xsi:noNamespaceSchemaLocation="http://sumo.dlr.de/xsd/tripinfo_file.xsd">
    <tripinfo id="1" depart="0.00" departLane="E1_0" departPos="100.10" departSpeed="0.00" departDelay="0.00" arrival="211.00" arrivalLane="E35_0" arrivalPos="120.00" arrivalSpeed="20.80" duration="211.00" routeLength="3813.38" waitingTime="0.00" waitingCount="0" stopTime="0.00" timeLoss="65.77" rerouteNo="3" devices="tripinfo_1" vType="rail1" speedFactor="1.00" vaporized=""/>
    <tripinfo id="2" depart="0.00" departLane="E2_0" departPos="100.10" departSpeed="0.00" departDelay="0.00" arrival="225.00" arrivalLane="E36_0" arrivalPos="254.43" arrivalSpeed="20.00" duration="225.00" routeLength="3818.02" waitingTime="0.00" waitingCount="0" stopTime="0.00" timeLoss="70.07" rerouteNo="2" devices="tripinfo_2" vType="rail2@2" speedFactor="1.00" vaporized=""/>
    <tripinfo id="3" depart="0.00" departLane="E3_0" departPos="100.10" departSpeed="0.00" departDelay="0.00" arrival="250.00" arrivalLane="E35_0" arrivalPos="120.00" arrivalSpeed="18.40" duration="250.00" routeLength="3863.44" waitingTime="10.00" waitingCount="1" stopTime="0.00" timeLoss="91.98" rerouteNo="2" devices="tripinfo_3" vType="rail3@3" speedFactor="1.00" vaporized=""/>
    <tripinfo id="4" depart="19.00" departLane="E3_0" departPos="100.10" departSpeed="0.00" departDelay="0.00" arrival="257.00" arrivalLane="E36_0" arrivalPos="254.43" arrivalSpeed="23.55" duration="238.00" routeLength="3841.71" waitingTime="2.00" waitingCount="1" stopTime="0.00" timeLoss="80.57" rerouteNo="1" devices="tripinfo_4" vType="rail4@4" speedFactor="1.00" vaporized=""/>
</tripinfos>
