<?xml version="1.0" encoding="UTF-8"?>

<!-- generated on 2022-09-20 12:52:27 by Eclipse SUMO GUI Version 1.14.1
<configuration xmlns:xsi="http://www.w3.org/2001/XMLSchema-instance" xsi:noNamespaceSchemaLocation="http://sumo.dlr.de/xsd/sumoConfiguration.xsd">

    <input>
        <net-file value="newNetRailvc2.net.xml"/>
        <route-files value="railvc2.rou.xml"/>
        <additional-files value="railvc2.add.xml"/>
    </input>

    <output>
        <tripinfo-output value="tripinfo.xml"/>
    </output>

    <processing>
        <time-to-teleport value="-1"/>
    </processing>

    <traci_server>
        <remote-port value="61041"/>
    </traci_server>

</configuration>
-->

<tripinfos xmlns:xsi="http://www.w3.org/2001/XMLSchema-instance" xsi:noNamespaceSchemaLocation="http://sumo.dlr.de/xsd/tripinfo_file.xsd">
    <tripinfo id="0" depart="0.00" departLane="E1_0" departPos="100.10" departSpeed="0.00" departDelay="0.00" arrival="402.00" arrivalLane="E48_0" arrivalPos="100.00" arrivalSpeed="12.60" duration="402.00" routeLength="5266.37" waitingTime="0.00" waitingCount="0" stopTime="0.00" timeLoss="166.57" rerouteNo="3" devices="tripinfo_0" vType="rail0" speedFactor="1.00" vaporized=""/>
    <tripinfo id="1" depart="0.00" departLane="E2_0" departPos="100.10" departSpeed="0.00" departDelay="0.00" arrival="584.00" arrivalLane="E51_0" arrivalPos="100.00" arrivalSpeed="12.60" duration="584.00" routeLength="5292.63" waitingTime="141.00" waitingCount="1" stopTime="0.00" timeLoss="341.66" rerouteNo="3" devices="tripinfo_1" vType="rail1" speedFactor="1.00" vaporized=""/>
    <tripinfo id="2" depart="0.00" departLane="E3_0" departPos="100.10" departSpeed="0.00" departDelay="0.00" arrival="925.00" arrivalLane="E48_0" arrivalPos="100.00" arrivalSpeed="12.60" duration="925.00" routeLength="9969.27" waitingTime="142.00" waitingCount="2" stopTime="0.00" timeLoss="489.22" rerouteNo="5" devices="tripinfo_2" vType="rail2" speedFactor="1.00" vaporized=""/>
    <tripinfo id="3" depart="18.00" departLane="E3_0" departPos="100.10" departSpeed="0.00" departDelay="17.00" arrival="951.00" arrivalLane="E51_0" arrivalPos="100.00" arrivalSpeed="12.60" duration="933.00" routeLength="9968.78" waitingTime="118.00" waitingCount="2" stopTime="0.00" timeLoss="499.28" rerouteNo="5" devices="tripinfo_3" vType="rail3" speedFactor="1.00" vaporized=""/>
    <tripinfo id="4" depart="37.00" departLane="E3_0" departPos="100.10" departSpeed="0.00" departDelay="14.00" arrival="1299.00" arrivalLane="E48_0" arrivalPos="100.00" arrivalSpeed="12.60" duration="1262.00" routeLength="14622.18" waitingTime="100.00" waitingCount="1" stopTime="0.00" timeLoss="637.67" rerouteNo="7" devices="tripinfo_4" vType="rail4" speedFactor="1.00" vaporized=""/>
    <tripinfo id="5" depart="62.00" departLane="E3_0" departPos="100.10" departSpeed="0.00" departDelay="17.00" arrival="1328.00" arrivalLane="E51_0" arrivalPos="100.00" arrivalSpeed="12.60" duration="1266.00" routeLength="14621.69" waitingTime="81.00" waitingCount="1" stopTime="0.00" timeLoss="643.59" rerouteNo="7" devices="tripinfo_5" vType="rail5" speedFactor="1.00" vaporized=""/>
    <tripinfo id="6" depart="83.00" departLane="E3_0" departPos="100.10" departSpeed="0.00" departDelay="16.00" arrival="1679.00" arrivalLane="E48_0" arrivalPos="100.00" arrivalSpeed="12.60" duration="1596.00" routeLength="19275.09" waitingTime="62.00" waitingCount="1" stopTime="0.00" timeLoss="782.96" rerouteNo="9" devices="tripinfo_6" vType="rail6" speedFactor="1.00" vaporized=""/>
    <tripinfo id="7" depart="103.00" departLane="E3_0" departPos="100.10" departSpeed="0.00" departDelay="14.00" arrival="1708.00" arrivalLane="E51_0" arrivalPos="100.00" arrivalSpeed="12.60" duration="1605.00" routeLength="19274.60" waitingTime="44.00" waitingCount="1" stopTime="0.00" timeLoss="794.54" rerouteNo="9" devices="tripinfo_7" vType="rail7" speedFactor="1.00" vaporized=""/>
    <tripinfo id="8" depart="123.00" departLane="E3_0" departPos="100.10" departSpeed="0.00" departDelay="12.00" arrival="2060.00" arrivalLane="E48_0" arrivalPos="100.00" arrivalSpeed="12.60" duration="1937.00" routeLength="23928.00" waitingTime="27.00" waitingCount="1" stopTime="0.00" timeLoss="936.97" rerouteNo="11" devices="tripinfo_8" vType="rail8" speedFactor="1.00" vaporized=""/>
    <tripinfo id="9" depart="144.00" departLane="E3_0" departPos="100.10" departSpeed="0.00" departDelay="11.00" arrival="2090.00" arrivalLane="E51_0" arrivalPos="100.00" arrivalSpeed="12.60" duration="1946.00" routeLength="23927.51" waitingTime="12.00" waitingCount="1" stopTime="0.00" timeLoss="948.89" rerouteNo="11" devices="tripinfo_9" vType="rail9" speedFactor="1.00" vaporized=""/>
    <tripinfo id="10" depart="165.00" departLane="E3_0" departPos="100.10" departSpeed="0.00" departDelay="10.00" arrival="2441.00" arrivalLane="E48_0" arrivalPos="100.00" arrivalSpeed="12.60" duration="2276.00" routeLength="28580.91" waitingTime="7.00" waitingCount="1" stopTime="0.00" timeLoss="1087.00" rerouteNo="13" devices="tripinfo_10" vType="rail10" speedFactor="1.00" vaporized=""/>
    <tripinfo id="11" depart="184.00" departLane="E3_0" departPos="100.10" departSpeed="0.00" departDelay="7.00" arrival="2472.00" arrivalLane="E51_0" arrivalPos="100.00" arrivalSpeed="12.60" duration="2288.00" routeLength="28580.42" waitingTime="7.00" waitingCount="1" stopTime="0.00" timeLoss="1099.59" rerouteNo="13" devices="tripinfo_11" vType="rail11" speedFactor="1.00" vaporized=""/>
    <tripinfo id="12" depart="209.00" departLane="E3_0" departPos="100.10" departSpeed="0.00" departDelay="10.00" arrival="2823.00" arrivalLane="E48_0" arrivalPos="100.00" arrivalSpeed="12.60" duration="2614.00" routeLength="33233.82" waitingTime="7.00" waitingCount="1" stopTime="0.00" timeLoss="1237.85" rerouteNo="15" devices="tripinfo_12" vType="rail12" speedFactor="1.00" vaporized=""/>
    <tripinfo id="13" depart="230.00" departLane="E3_0" departPos="100.10" departSpeed="0.00" departDelay="9.00" arrival="2854.00" arrivalLane="E51_0" arrivalPos="100.00" arrivalSpeed="12.60" duration="2624.00" routeLength="33233.33" waitingTime="7.00" waitingCount="1" stopTime="0.00" timeLoss="1250.33" rerouteNo="15" devices="tripinfo_13" vType="rail13" speedFactor="1.00" vaporized=""/>
    <tripinfo id="14" depart="252.00" departLane="E3_0" departPos="100.10" departSpeed="0.00" departDelay="9.00" arrival="3206.00" arrivalLane="E48_0" arrivalPos="100.00" arrivalSpeed="12.60" duration="2954.00" routeLength="37886.73" waitingTime="205.00" waitingCount="2" stopTime="0.00" timeLoss="1387.37" rerouteNo="18" devices="tripinfo_14" vType="rail14" speedFactor="1.00" vaporized=""/>
</tripinfos>
