<?xml version="1.0" encoding="UTF-8"?>

<!-- generated on 2022-06-20 18:17:08 by Eclipse SUMO GUI Version 1.13.0
<configuration xmlns:xsi="http://www.w3.org/2001/XMLSchema-instance" xsi:noNamespaceSchemaLocation="http://sumo.dlr.de/xsd/sumoConfiguration.xsd">

    <input>
        <net-file value="railvc2.net.xml"/>
        <route-files value="railvc2.rou.xml"/>
        <additional-files value="railvc2.add.xml"/>
    </input>

    <output>
        <tripinfo-output value="tripinfo.xml"/>
    </output>

    <traci_server>
        <remote-port value="61022"/>
    </traci_server>

</configuration>
-->

<tripinfos xmlns:xsi="http://www.w3.org/2001/XMLSchema-instance" xsi:noNamespaceSchemaLocation="http://sumo.dlr.de/xsd/tripinfo_file.xsd">
    <tripinfo id="1" depart="0.00" departLane="E1_0" departPos="100.10" departSpeed="0.00" departDelay="0.00" arrival="211.00" arrivalLane="E35_0" arrivalPos="120.00" arrivalSpeed="20.80" duration="211.00" routeLength="3813.38" waitingTime="0.00" waitingCount="0" stopTime="0.00" timeLoss="65.45" rerouteNo="3" devices="tripinfo_1" vType="rail1" speedFactor="1.00" vaporized=""/>
    <tripinfo id="2" depart="0.00" departLane="E2_0" departPos="100.10" departSpeed="0.00" departDelay="0.00" arrival="226.00" arrivalLane="E35_0" arrivalPos="120.00" arrivalSpeed="20.00" duration="226.00" routeLength="3839.75" waitingTime="0.00" waitingCount="0" stopTime="0.00" timeLoss="70.53" rerouteNo="3" devices="tripinfo_2" vType="rail2@2" speedFactor="1.00" vaporized=""/>
    <tripinfo id="3" depart="0.00" departLane="E3_0" departPos="100.10" departSpeed="0.00" departDelay="0.00" arrival="493.00" arrivalLane="E35_0" arrivalPos="120.00" arrivalSpeed="18.40" duration="493.00" routeLength="8438.77" waitingTime="10.00" waitingCount="1" stopTime="0.00" timeLoss="141.17" rerouteNo="4" devices="tripinfo_3" vType="rail3@3" speedFactor="1.00" vaporized=""/>
    <tripinfo id="4" depart="19.00" departLane="E3_0" departPos="100.10" departSpeed="0.00" departDelay="0.00" arrival="778.00" arrivalLane="E37_0" arrivalPos="105.72" arrivalSpeed="17.60" duration="759.00" routeLength="13098.97" waitingTime="2.00" waitingCount="1" stopTime="0.00" timeLoss="206.49" rerouteNo="5" devices="tripinfo_4" vType="rail4@4" speedFactor="1.00" vaporized=""/>
</tripinfos>
