<?xml version="1.0" encoding="UTF-8"?>

<!-- generated on 2022-07-21 19:13:10 by Eclipse SUMO GUI Version 1.13.0
<configuration xmlns:xsi="http://www.w3.org/2001/XMLSchema-instance" xsi:noNamespaceSchemaLocation="http://sumo.dlr.de/xsd/sumoConfiguration.xsd">

    <input>
        <net-file value="railvc2.net.xml"/>
        <route-files value="railvc2.rou.xml"/>
        <additional-files value="railvc2.add.xml"/>
    </input>

    <output>
        <tripinfo-output value="tripinfo.xml"/>
    </output>

    <traci_server>
        <remote-port value="51552"/>
    </traci_server>

</configuration>
-->

<tripinfos xmlns:xsi="http://www.w3.org/2001/XMLSchema-instance" xsi:noNamespaceSchemaLocation="http://sumo.dlr.de/xsd/tripinfo_file.xsd">
    <tripinfo id="1" depart="0.00" departLane="E1_0" departPos="100.10" departSpeed="0.00" departDelay="0.00" arrival="362.00" arrivalLane="E48_0" arrivalPos="100.00" arrivalSpeed="15.00" duration="362.00" routeLength="5266.65" waitingTime="0.00" waitingCount="0" stopTime="0.00" timeLoss="126.09" rerouteNo="3" devices="tripinfo_1" vType="rail1" speedFactor="1.00" vaporized=""/>
    <tripinfo id="2" depart="0.00" departLane="E2_0" departPos="100.10" departSpeed="0.00" departDelay="0.00" arrival="381.00" arrivalLane="E51_0" arrivalPos="100.00" arrivalSpeed="15.00" duration="381.00" routeLength="5292.91" waitingTime="0.00" waitingCount="0" stopTime="0.00" timeLoss="140.36" rerouteNo="3" devices="tripinfo_2" vType="rail2@2" speedFactor="1.00" vaporized=""/>
    <tripinfo id="3" depart="0.00" departLane="E3_0" departPos="100.10" departSpeed="0.00" departDelay="0.00" arrival="714.00" arrivalLane="E48_0" arrivalPos="100.00" arrivalSpeed="15.00" duration="714.00" routeLength="9969.83" waitingTime="8.00" waitingCount="1" stopTime="0.00" timeLoss="282.33" rerouteNo="5" devices="tripinfo_3" vType="rail3@3" speedFactor="1.00" vaporized=""/>
    <tripinfo id="4" depart="21.00" departLane="E3_0" departPos="100.10" departSpeed="0.00" departDelay="0.00" arrival="734.00" arrivalLane="E51_0" arrivalPos="100.00" arrivalSpeed="15.00" duration="713.00" routeLength="9969.34" waitingTime="0.00" waitingCount="0" stopTime="0.00" timeLoss="279.33" rerouteNo="5" devices="tripinfo_4" vType="rail4@4" speedFactor="1.00" vaporized=""/>
    <tripinfo id="5" depart="43.00" departLane="E3_0" departPos="100.10" departSpeed="0.00" departDelay="0.00" arrival="1068.00" arrivalLane="E48_0" arrivalPos="100.00" arrivalSpeed="15.00" duration="1025.00" routeLength="14623.02" waitingTime="0.00" waitingCount="0" stopTime="0.00" timeLoss="407.02" rerouteNo="7" devices="tripinfo_5" vType="rail5@5" speedFactor="1.00" vaporized=""/>
    <tripinfo id="6" depart="65.00" departLane="E3_0" departPos="100.10" departSpeed="0.00" departDelay="0.00" arrival="1085.00" arrivalLane="E51_0" arrivalPos="100.00" arrivalSpeed="15.00" duration="1020.00" routeLength="14622.53" waitingTime="0.00" waitingCount="0" stopTime="0.00" timeLoss="398.84" rerouteNo="7" devices="tripinfo_6" vType="rail6@6" speedFactor="1.00" vaporized=""/>
    <tripinfo id="7" depart="87.00" departLane="E3_0" departPos="100.10" departSpeed="0.00" departDelay="0.00" arrival="1418.00" arrivalLane="E48_0" arrivalPos="100.00" arrivalSpeed="15.00" duration="1331.00" routeLength="19276.21" waitingTime="0.00" waitingCount="0" stopTime="0.00" timeLoss="526.56" rerouteNo="9" devices="tripinfo_7" vType="rail7@7" speedFactor="1.00" vaporized=""/>
    <tripinfo id="8" depart="109.00" departLane="E3_0" departPos="100.10" departSpeed="0.00" departDelay="0.00" arrival="1438.00" arrivalLane="E51_0" arrivalPos="100.00" arrivalSpeed="15.00" duration="1329.00" routeLength="19275.72" waitingTime="0.00" waitingCount="0" stopTime="0.00" timeLoss="521.31" rerouteNo="9" devices="tripinfo_8" vType="rail8@8" speedFactor="1.00" vaporized=""/>
    <tripinfo id="9" depart="131.00" departLane="E3_0" departPos="100.10" departSpeed="0.00" departDelay="0.00" arrival="1772.00" arrivalLane="E48_0" arrivalPos="100.00" arrivalSpeed="15.00" duration="1641.00" routeLength="23929.40" waitingTime="0.00" waitingCount="0" stopTime="0.00" timeLoss="647.04" rerouteNo="11" devices="tripinfo_9" vType="rail9@9" speedFactor="1.00" vaporized=""/>
    <tripinfo id="10" depart="153.00" departLane="E3_0" departPos="100.10" departSpeed="0.00" departDelay="0.00" arrival="1791.00" arrivalLane="E51_0" arrivalPos="100.00" arrivalSpeed="15.00" duration="1638.00" routeLength="23928.91" waitingTime="0.00" waitingCount="0" stopTime="0.00" timeLoss="646.48" rerouteNo="11" devices="tripinfo_10" vType="rail10@10" speedFactor="1.00" vaporized=""/>
    <tripinfo id="11" depart="175.00" departLane="E3_0" departPos="100.10" departSpeed="0.00" departDelay="0.00" arrival="2124.00" arrivalLane="E48_0" arrivalPos="100.00" arrivalSpeed="15.00" duration="1949.00" routeLength="28582.59" waitingTime="0.00" waitingCount="0" stopTime="0.00" timeLoss="768.03" rerouteNo="13" devices="tripinfo_11" vType="rail11@11" speedFactor="1.00" vaporized=""/>
    <tripinfo id="12" depart="197.00" departLane="E3_0" departPos="100.10" departSpeed="0.00" departDelay="0.00" arrival="2142.00" arrivalLane="E51_0" arrivalPos="100.00" arrivalSpeed="15.00" duration="1945.00" routeLength="28582.10" waitingTime="0.00" waitingCount="0" stopTime="0.00" timeLoss="765.17" rerouteNo="13" devices="tripinfo_12" vType="rail12@12" speedFactor="1.00" vaporized=""/>
    <tripinfo id="13" depart="219.00" departLane="E3_0" departPos="100.10" departSpeed="0.00" departDelay="0.00" arrival="2476.00" arrivalLane="E48_0" arrivalPos="100.00" arrivalSpeed="15.00" duration="2257.00" routeLength="33235.78" waitingTime="0.00" waitingCount="0" stopTime="0.00" timeLoss="891.49" rerouteNo="15" devices="tripinfo_13" vType="rail13@13" speedFactor="1.00" vaporized=""/>
    <tripinfo id="14" depart="241.00" departLane="E3_0" departPos="100.10" departSpeed="0.00" departDelay="0.00" arrival="3430.00" arrivalLane="E6_0" arrivalPos="392.12" arrivalSpeed="15.00" duration="3189.00" routeLength="47254.57" waitingTime="0.00" waitingCount="0" stopTime="0.00" timeLoss="1270.14" rerouteNo="20" devices="tripinfo_14" vType="rail14@14" speedFactor="1.00" vaporized=""/>
</tripinfos>
