<?xml version="1.0" encoding="UTF-8"?>

<!-- generated on 2022-09-12 19:27:25 by Eclipse SUMO GUI Version 1.14.1
<configuration xmlns:xsi="http://www.w3.org/2001/XMLSchema-instance" xsi:noNamespaceSchemaLocation="http://sumo.dlr.de/xsd/sumoConfiguration.xsd">

    <input>
        <net-file value="newNetRailvc2.net.xml"/>
        <route-files value="railvc2.rou.xml"/>
        <additional-files value="railvc2.add.xml"/>
    </input>

    <output>
        <tripinfo-output value="tripinfo.xml"/>
    </output>

    <processing>
        <time-to-teleport value="-1"/>
    </processing>

    <traci_server>
        <remote-port value="65259"/>
    </traci_server>

</configuration>
-->

<tripinfos xmlns:xsi="http://www.w3.org/2001/XMLSchema-instance" xsi:noNamespaceSchemaLocation="http://sumo.dlr.de/xsd/tripinfo_file.xsd">
    <tripinfo id="0" depart="0.00" departLane="E1_0" departPos="100.10" departSpeed="0.00" departDelay="0.00" arrival="362.00" arrivalLane="E48_0" arrivalPos="100.00" arrivalSpeed="15.00" duration="362.00" routeLength="5266.37" waitingTime="0.00" waitingCount="0" stopTime="0.00" timeLoss="124.95" rerouteNo="3" devices="tripinfo_0" vType="rail0" speedFactor="1.00" vaporized=""/>
    <tripinfo id="1" depart="0.00" departLane="E2_0" departPos="100.10" departSpeed="0.00" departDelay="0.00" arrival="381.00" arrivalLane="E51_0" arrivalPos="100.00" arrivalSpeed="15.00" duration="381.00" routeLength="5292.63" waitingTime="0.00" waitingCount="0" stopTime="0.00" timeLoss="139.28" rerouteNo="3" devices="tripinfo_1" vType="rail1@1" speedFactor="1.00" vaporized=""/>
    <tripinfo id="2" depart="0.00" departLane="E3_0" departPos="100.10" departSpeed="0.00" departDelay="0.00" arrival="715.00" arrivalLane="E48_0" arrivalPos="100.00" arrivalSpeed="15.00" duration="715.00" routeLength="9969.27" waitingTime="9.00" waitingCount="1" stopTime="0.00" timeLoss="281.24" rerouteNo="5" devices="tripinfo_2" vType="rail2@2" speedFactor="1.00" vaporized=""/>
    <tripinfo id="3" depart="18.00" departLane="E3_0" departPos="100.10" departSpeed="0.00" departDelay="17.00" arrival="736.00" arrivalLane="E51_0" arrivalPos="100.00" arrivalSpeed="15.00" duration="718.00" routeLength="9968.78" waitingTime="1.00" waitingCount="1" stopTime="0.00" timeLoss="282.58" rerouteNo="5" devices="tripinfo_3" vType="rail3@3" speedFactor="1.00" vaporized=""/>
    <tripinfo id="4" depart="37.00" departLane="E3_0" departPos="100.10" departSpeed="0.00" departDelay="14.00" arrival="1069.00" arrivalLane="E48_0" arrivalPos="100.00" arrivalSpeed="15.00" duration="1032.00" routeLength="14622.18" waitingTime="2.00" waitingCount="2" stopTime="0.00" timeLoss="410.01" rerouteNo="7" devices="tripinfo_4" vType="rail4@4" speedFactor="1.00" vaporized=""/>
    <tripinfo id="5" depart="62.00" departLane="E3_0" departPos="100.10" departSpeed="0.00" departDelay="17.00" arrival="1089.00" arrivalLane="E51_0" arrivalPos="100.00" arrivalSpeed="15.00" duration="1027.00" routeLength="14621.69" waitingTime="3.00" waitingCount="2" stopTime="0.00" timeLoss="399.48" rerouteNo="7" devices="tripinfo_5" vType="rail5@5" speedFactor="1.00" vaporized=""/>
    <tripinfo id="6" depart="83.00" departLane="E3_0" departPos="100.10" departSpeed="0.00" departDelay="16.00" arrival="1422.00" arrivalLane="E48_0" arrivalPos="100.00" arrivalSpeed="15.00" duration="1339.00" routeLength="19275.09" waitingTime="2.00" waitingCount="2" stopTime="0.00" timeLoss="529.57" rerouteNo="9" devices="tripinfo_6" vType="rail6@6" speedFactor="1.00" vaporized=""/>
    <tripinfo id="7" depart="103.00" departLane="E3_0" departPos="100.10" departSpeed="0.00" departDelay="14.00" arrival="1442.00" arrivalLane="E51_0" arrivalPos="100.00" arrivalSpeed="15.00" duration="1339.00" routeLength="19274.60" waitingTime="2.00" waitingCount="2" stopTime="0.00" timeLoss="529.80" rerouteNo="9" devices="tripinfo_7" vType="rail7@7" speedFactor="1.00" vaporized=""/>
    <tripinfo id="8" depart="123.00" departLane="E3_0" departPos="100.10" departSpeed="0.00" departDelay="12.00" arrival="1774.00" arrivalLane="E48_0" arrivalPos="100.00" arrivalSpeed="15.00" duration="1651.00" routeLength="23928.00" waitingTime="3.00" waitingCount="1" stopTime="0.00" timeLoss="653.12" rerouteNo="11" devices="tripinfo_8" vType="rail8@8" speedFactor="1.00" vaporized=""/>
    <tripinfo id="9" depart="144.00" departLane="E3_0" departPos="100.10" departSpeed="0.00" departDelay="11.00" arrival="1793.00" arrivalLane="E51_0" arrivalPos="100.00" arrivalSpeed="15.00" duration="1649.00" routeLength="23927.51" waitingTime="5.00" waitingCount="2" stopTime="0.00" timeLoss="651.96" rerouteNo="11" devices="tripinfo_9" vType="rail9@9" speedFactor="1.00" vaporized=""/>
    <tripinfo id="10" depart="165.00" departLane="E3_0" departPos="100.10" departSpeed="0.00" departDelay="10.00" arrival="2126.00" arrivalLane="E48_0" arrivalPos="100.00" arrivalSpeed="15.00" duration="1961.00" routeLength="28580.91" waitingTime="7.00" waitingCount="3" stopTime="0.00" timeLoss="775.98" rerouteNo="13" devices="tripinfo_10" vType="rail10@10" speedFactor="1.00" vaporized=""/>
    <tripinfo id="11" depart="184.00" departLane="E3_0" departPos="100.10" departSpeed="0.00" departDelay="7.00" arrival="2146.00" arrivalLane="E51_0" arrivalPos="100.00" arrivalSpeed="15.00" duration="1962.00" routeLength="28580.42" waitingTime="10.00" waitingCount="4" stopTime="0.00" timeLoss="770.35" rerouteNo="13" devices="tripinfo_11" vType="rail11@11" speedFactor="1.00" vaporized=""/>
    <tripinfo id="12" depart="209.00" departLane="E3_0" departPos="100.10" departSpeed="0.00" departDelay="10.00" arrival="2478.00" arrivalLane="E48_0" arrivalPos="100.00" arrivalSpeed="15.00" duration="2269.00" routeLength="33233.82" waitingTime="9.00" waitingCount="5" stopTime="0.00" timeLoss="896.20" rerouteNo="15" devices="tripinfo_12" vType="rail12@12" speedFactor="1.00" vaporized=""/>
    <tripinfo id="13" depart="230.00" departLane="E3_0" departPos="100.10" departSpeed="0.00" departDelay="9.00" arrival="2498.00" arrivalLane="E51_0" arrivalPos="100.00" arrivalSpeed="15.00" duration="2268.00" routeLength="33233.33" waitingTime="8.00" waitingCount="3" stopTime="0.00" timeLoss="894.18" rerouteNo="15" devices="tripinfo_13" vType="rail13@13" speedFactor="1.00" vaporized=""/>
    <tripinfo id="14" depart="252.00" departLane="E3_0" departPos="100.10" departSpeed="0.00" departDelay="9.00" arrival="2831.00" arrivalLane="E48_0" arrivalPos="100.00" arrivalSpeed="15.00" duration="2579.00" routeLength="37886.73" waitingTime="8.00" waitingCount="5" stopTime="0.00" timeLoss="1014.79" rerouteNo="17" devices="tripinfo_14" vType="rail14@14" speedFactor="1.00" vaporized=""/>
    <tripinfo id="15" depart="273.00" departLane="E3_0" departPos="100.10" departSpeed="0.00" departDelay="8.00" arrival="2851.00" arrivalLane="E51_0" arrivalPos="100.00" arrivalSpeed="15.00" duration="2578.00" routeLength="37886.24" waitingTime="6.00" waitingCount="2" stopTime="0.00" timeLoss="1018.75" rerouteNo="17" devices="tripinfo_15" vType="rail15@15" speedFactor="1.00" vaporized=""/>
    <tripinfo id="16" depart="296.00" departLane="E3_0" departPos="100.10" departSpeed="0.00" departDelay="9.00" arrival="3184.00" arrivalLane="E48_0" arrivalPos="100.00" arrivalSpeed="15.00" duration="2888.00" routeLength="37886.73" waitingTime="11.00" waitingCount="2" stopTime="0.00" timeLoss="1327.30" rerouteNo="17" devices="tripinfo_16" vType="rail16@16" speedFactor="1.00" vaporized=""/>
    <tripinfo id="17" depart="317.00" departLane="E3_0" departPos="100.10" departSpeed="0.00" departDelay="8.00" arrival="3202.00" arrivalLane="E51_0" arrivalPos="100.00" arrivalSpeed="15.00" duration="2885.00" routeLength="37886.24" waitingTime="15.00" waitingCount="5" stopTime="0.00" timeLoss="1322.09" rerouteNo="17" devices="tripinfo_17" vType="rail17@17" speedFactor="1.00" vaporized=""/>
    <tripinfo id="18" depart="529.00" departLane="E3_0" departPos="100.10" departSpeed="0.00" departDelay="198.00" arrival="3535.00" arrivalLane="E48_0" arrivalPos="100.00" arrivalSpeed="15.00" duration="3006.00" routeLength="42539.64" waitingTime="18.00" waitingCount="7" stopTime="0.00" timeLoss="1259.31" rerouteNo="19" devices="tripinfo_18" vType="rail18@18" speedFactor="1.00" vaporized=""/>
    <tripinfo id="19" depart="560.00" departLane="E3_0" departPos="100.10" departSpeed="0.00" departDelay="207.00" arrival="3554.00" arrivalLane="E51_0" arrivalPos="100.00" arrivalSpeed="15.00" duration="2994.00" routeLength="42539.15" waitingTime="95.00" waitingCount="6" stopTime="0.00" timeLoss="1240.67" rerouteNo="19" devices="tripinfo_19" vType="rail19@19" speedFactor="1.00" vaporized=""/>
    <tripinfo id="20" depart="580.00" departLane="E3_0" departPos="100.10" departSpeed="0.00" departDelay="205.00" arrival="3803.00" arrivalLane="E29_0" arrivalPos="109.67" arrivalSpeed="15.00" duration="3223.00" routeLength="41278.17" waitingTime="109.00" waitingCount="14" stopTime="0.00" timeLoss="1557.88" rerouteNo="17" devices="tripinfo_20" vType="rail20@20" speedFactor="1.00" vaporized=""/>
    <tripinfo id="21" depart="605.00" departLane="E3_0" departPos="100.10" departSpeed="0.00" departDelay="208.00" arrival="3811.00" arrivalLane="E29_0" arrivalPos="109.67" arrivalSpeed="15.10" duration="3206.00" routeLength="41278.17" waitingTime="174.00" waitingCount="5" stopTime="0.00" timeLoss="1539.36" rerouteNo="17" devices="tripinfo_21" vType="rail21@21" speedFactor="1.00" vaporized=""/>
    <tripinfo id="22" depart="627.00" departLane="E3_0" departPos="100.10" departSpeed="0.00" departDelay="208.00" arrival="3818.00" arrivalLane="E29_0" arrivalPos="109.67" arrivalSpeed="15.10" duration="3191.00" routeLength="41278.17" waitingTime="170.00" waitingCount="5" stopTime="0.00" timeLoss="1526.48" rerouteNo="17" devices="tripinfo_22" vType="rail22@22" speedFactor="1.00" vaporized=""/>
    <tripinfo id="23" depart="894.00" departLane="E3_0" departPos="100.10" departSpeed="0.00" departDelay="453.00" arrival="3826.00" arrivalLane="E29_0" arrivalPos="109.67" arrivalSpeed="15.10" duration="2932.00" routeLength="41278.17" waitingTime="226.00" waitingCount="9" stopTime="0.00" timeLoss="1268.08" rerouteNo="17" devices="tripinfo_23" vType="rail23@23" speedFactor="1.00" vaporized=""/>
    <tripinfo id="24" depart="923.00" departLane="E3_0" departPos="100.10" departSpeed="0.00" departDelay="460.00" arrival="3834.00" arrivalLane="E29_0" arrivalPos="109.67" arrivalSpeed="15.10" duration="2911.00" routeLength="41278.17" waitingTime="329.00" waitingCount="9" stopTime="0.00" timeLoss="1247.05" rerouteNo="17" devices="tripinfo_24" vType="rail24@24" speedFactor="1.00" vaporized=""/>
    <tripinfo id="25" depart="942.00" departLane="E3_0" departPos="100.10" departSpeed="0.00" departDelay="457.00" arrival="3841.00" arrivalLane="E29_0" arrivalPos="109.67" arrivalSpeed="15.10" duration="2899.00" routeLength="41278.17" waitingTime="176.00" waitingCount="23" stopTime="0.00" timeLoss="1235.53" rerouteNo="17" devices="tripinfo_25" vType="rail25@25" speedFactor="1.00" vaporized=""/>
    <tripinfo id="26" depart="961.00" departLane="E3_0" departPos="100.10" departSpeed="0.00" departDelay="454.00" arrival="3849.00" arrivalLane="E29_0" arrivalPos="109.67" arrivalSpeed="15.10" duration="2888.00" routeLength="41278.17" waitingTime="242.00" waitingCount="16" stopTime="0.00" timeLoss="1217.52" rerouteNo="17" devices="tripinfo_26" vType="rail26@26" speedFactor="1.00" vaporized=""/>
    <tripinfo id="27" depart="982.00" departLane="E3_0" departPos="100.10" departSpeed="0.00" departDelay="453.00" arrival="3857.00" arrivalLane="E29_0" arrivalPos="109.67" arrivalSpeed="15.10" duration="2875.00" routeLength="36625.26" waitingTime="315.00" waitingCount="24" stopTime="0.00" timeLoss="1397.42" rerouteNo="15" devices="tripinfo_27" vType="rail27@27" speedFactor="1.00" vaporized=""/>
    <tripinfo id="28" depart="1012.00" departLane="E3_0" departPos="100.10" departSpeed="0.00" departDelay="461.00" arrival="3864.00" arrivalLane="E29_0" arrivalPos="109.67" arrivalSpeed="15.70" duration="2852.00" routeLength="36625.26" waitingTime="168.00" waitingCount="12" stopTime="0.00" timeLoss="1374.88" rerouteNo="15" devices="tripinfo_28" vType="rail28@28" speedFactor="1.00" vaporized=""/>
    <tripinfo id="29" depart="1282.00" departLane="E3_0" departPos="100.10" departSpeed="0.00" departDelay="709.00" arrival="3956.00" arrivalLane="E48_0" arrivalPos="100.00" arrivalSpeed="15.00" duration="2674.00" routeLength="37886.73" waitingTime="122.00" waitingCount="13" stopTime="0.00" timeLoss="1115.23" rerouteNo="16" devices="tripinfo_29" vType="rail29@29" speedFactor="1.00" vaporized=""/>
</tripinfos>
