<?xml version="1.0" encoding="UTF-8"?>

<!-- generated on 2022-10-06 18:39:25 by Eclipse SUMO GUI Version 1.14.1
<configuration xmlns:xsi="http://www.w3.org/2001/XMLSchema-instance" xsi:noNamespaceSchemaLocation="http://sumo.dlr.de/xsd/sumoConfiguration.xsd">

    <input>
        <net-file value="railvc2.net.xml"/>
        <route-files value="railvc2.rou.xml"/>
        <additional-files value="railvc2.add.xml"/>
    </input>

    <output>
        <tripinfo-output value="tripinfo.xml"/>
    </output>

    <processing>
        <time-to-teleport value="-1"/>
    </processing>

    <traci_server>
        <remote-port value="60490"/>
    </traci_server>

</configuration>
-->

<tripinfos xmlns:xsi="http://www.w3.org/2001/XMLSchema-instance" xsi:noNamespaceSchemaLocation="http://sumo.dlr.de/xsd/tripinfo_file.xsd">
    <tripinfo id="0" depart="0.00" departLane="E1_0" departPos="100.10" departSpeed="0.00" departDelay="0.00" arrival="362.00" arrivalLane="E48_0" arrivalPos="100.00" arrivalSpeed="15.00" duration="362.00" routeLength="5266.37" waitingTime="0.00" waitingCount="0" stopTime="0.00" timeLoss="124.95" rerouteNo="3" devices="tripinfo_0" vType="rail0" speedFactor="1.00" vaporized=""/>
    <tripinfo id="1" depart="0.00" departLane="E2_0" departPos="100.10" departSpeed="0.00" departDelay="0.00" arrival="381.00" arrivalLane="E51_0" arrivalPos="100.00" arrivalSpeed="15.00" duration="381.00" routeLength="5292.63" waitingTime="0.00" waitingCount="0" stopTime="0.00" timeLoss="139.25" rerouteNo="3" devices="tripinfo_1" vType="rail1@1" speedFactor="1.00" vaporized=""/>
    <tripinfo id="2" depart="0.00" departLane="E3_0" departPos="100.10" departSpeed="0.00" departDelay="0.00" arrival="716.00" arrivalLane="E48_0" arrivalPos="100.00" arrivalSpeed="15.00" duration="716.00" routeLength="9969.27" waitingTime="9.00" waitingCount="1" stopTime="0.00" timeLoss="282.01" rerouteNo="5" devices="tripinfo_2" vType="rail2@2" speedFactor="1.00" vaporized=""/>
    <tripinfo id="3" depart="18.00" departLane="E3_0" departPos="100.10" departSpeed="0.00" departDelay="17.00" arrival="737.00" arrivalLane="E51_0" arrivalPos="100.00" arrivalSpeed="15.00" duration="719.00" routeLength="9968.78" waitingTime="3.00" waitingCount="3" stopTime="0.00" timeLoss="285.27" rerouteNo="5" devices="tripinfo_3" vType="rail3@3" speedFactor="1.00" vaporized=""/>
    <tripinfo id="4" depart="37.00" departLane="E3_0" departPos="100.10" departSpeed="0.00" departDelay="14.00" arrival="1070.00" arrivalLane="E48_0" arrivalPos="100.00" arrivalSpeed="15.00" duration="1033.00" routeLength="14622.18" waitingTime="3.00" waitingCount="2" stopTime="0.00" timeLoss="410.88" rerouteNo="7" devices="tripinfo_4" vType="rail4@4" speedFactor="1.00" vaporized=""/>
    <tripinfo id="5" depart="62.00" departLane="E3_0" departPos="100.10" departSpeed="0.00" departDelay="17.00" arrival="1090.00" arrivalLane="E51_0" arrivalPos="100.00" arrivalSpeed="15.00" duration="1028.00" routeLength="14621.69" waitingTime="3.00" waitingCount="2" stopTime="0.00" timeLoss="405.94" rerouteNo="7" devices="tripinfo_5" vType="rail5@5" speedFactor="1.00" vaporized=""/>
    <tripinfo id="6" depart="83.00" departLane="E3_0" departPos="100.10" departSpeed="0.00" departDelay="16.00" arrival="1423.00" arrivalLane="E48_0" arrivalPos="100.00" arrivalSpeed="15.00" duration="1340.00" routeLength="19275.09" waitingTime="4.00" waitingCount="3" stopTime="0.00" timeLoss="530.11" rerouteNo="9" devices="tripinfo_6" vType="rail6@6" speedFactor="1.00" vaporized=""/>
    <tripinfo id="7" depart="103.00" departLane="E3_0" departPos="100.10" departSpeed="0.00" departDelay="14.00" arrival="1442.00" arrivalLane="E51_0" arrivalPos="100.00" arrivalSpeed="15.00" duration="1339.00" routeLength="19274.60" waitingTime="2.00" waitingCount="2" stopTime="0.00" timeLoss="529.21" rerouteNo="9" devices="tripinfo_7" vType="rail7@7" speedFactor="1.00" vaporized=""/>
    <tripinfo id="8" depart="123.00" departLane="E3_0" departPos="100.10" departSpeed="0.00" departDelay="12.00" arrival="1775.00" arrivalLane="E48_0" arrivalPos="100.00" arrivalSpeed="15.00" duration="1652.00" routeLength="23928.00" waitingTime="3.00" waitingCount="1" stopTime="0.00" timeLoss="655.51" rerouteNo="11" devices="tripinfo_8" vType="rail8@8" speedFactor="1.00" vaporized=""/>
    <tripinfo id="9" depart="144.00" departLane="E3_0" departPos="100.10" departSpeed="0.00" departDelay="11.00" arrival="1794.00" arrivalLane="E51_0" arrivalPos="100.00" arrivalSpeed="15.00" duration="1650.00" routeLength="23927.51" waitingTime="5.00" waitingCount="2" stopTime="0.00" timeLoss="652.58" rerouteNo="11" devices="tripinfo_9" vType="rail9@9" speedFactor="1.00" vaporized=""/>
    <tripinfo id="10" depart="165.00" departLane="E3_0" departPos="100.10" departSpeed="0.00" departDelay="10.00" arrival="2126.00" arrivalLane="E48_0" arrivalPos="100.00" arrivalSpeed="15.00" duration="1961.00" routeLength="28580.91" waitingTime="8.00" waitingCount="3" stopTime="0.00" timeLoss="777.01" rerouteNo="13" devices="tripinfo_10" vType="rail10@10" speedFactor="1.00" vaporized=""/>
    <tripinfo id="11" depart="184.00" departLane="E3_0" departPos="100.10" departSpeed="0.00" departDelay="7.00" arrival="2146.00" arrivalLane="E51_0" arrivalPos="100.00" arrivalSpeed="15.00" duration="1962.00" routeLength="28580.42" waitingTime="7.00" waitingCount="3" stopTime="0.00" timeLoss="774.86" rerouteNo="13" devices="tripinfo_11" vType="rail11@11" speedFactor="1.00" vaporized=""/>
    <tripinfo id="12" depart="209.00" departLane="E3_0" departPos="100.10" departSpeed="0.00" departDelay="10.00" arrival="2480.00" arrivalLane="E48_0" arrivalPos="100.00" arrivalSpeed="15.00" duration="2271.00" routeLength="33233.82" waitingTime="11.00" waitingCount="3" stopTime="0.00" timeLoss="895.15" rerouteNo="15" devices="tripinfo_12" vType="rail12@12" speedFactor="1.00" vaporized=""/>
    <tripinfo id="13" depart="230.00" departLane="E3_0" departPos="100.10" departSpeed="0.00" departDelay="9.00" arrival="2499.00" arrivalLane="E51_0" arrivalPos="100.00" arrivalSpeed="15.00" duration="2269.00" routeLength="33233.33" waitingTime="35.00" waitingCount="4" stopTime="0.00" timeLoss="887.44" rerouteNo="15" devices="tripinfo_13" vType="rail13@13" speedFactor="1.00" vaporized=""/>
    <tripinfo id="14" depart="252.00" departLane="E3_0" departPos="100.10" departSpeed="0.00" departDelay="9.00" arrival="2832.00" arrivalLane="E48_0" arrivalPos="100.00" arrivalSpeed="15.00" duration="2580.00" routeLength="37886.73" waitingTime="14.00" waitingCount="7" stopTime="0.00" timeLoss="1018.10" rerouteNo="17" devices="tripinfo_14" vType="rail14@14" speedFactor="1.00" vaporized=""/>
    <tripinfo id="15" depart="274.00" departLane="E3_0" departPos="100.10" departSpeed="0.00" departDelay="9.00" arrival="2851.00" arrivalLane="E51_0" arrivalPos="100.00" arrivalSpeed="15.00" duration="2577.00" routeLength="37886.24" waitingTime="25.00" waitingCount="15" stopTime="0.00" timeLoss="1016.44" rerouteNo="17" devices="tripinfo_15" vType="rail15@15" speedFactor="1.00" vaporized=""/>
    <tripinfo id="16" depart="297.00" departLane="E3_0" departPos="100.10" departSpeed="0.00" departDelay="10.00" arrival="3183.00" arrivalLane="E48_0" arrivalPos="100.00" arrivalSpeed="15.00" duration="2886.00" routeLength="37886.73" waitingTime="214.00" waitingCount="8" stopTime="0.00" timeLoss="1326.13" rerouteNo="17" devices="tripinfo_16" vType="rail16@16" speedFactor="1.00" vaporized=""/>
    <tripinfo id="17" depart="322.00" departLane="E3_0" departPos="100.10" departSpeed="0.00" departDelay="13.00" arrival="3203.00" arrivalLane="E51_0" arrivalPos="100.00" arrivalSpeed="15.00" duration="2881.00" routeLength="37886.24" waitingTime="248.00" waitingCount="7" stopTime="0.00" timeLoss="1309.71" rerouteNo="17" devices="tripinfo_17" vType="rail17@17" speedFactor="1.00" vaporized=""/>
    <tripinfo id="18" depart="544.00" departLane="E3_0" departPos="100.10" departSpeed="0.00" departDelay="213.00" arrival="3536.00" arrivalLane="E48_0" arrivalPos="100.00" arrivalSpeed="15.00" duration="2992.00" routeLength="42539.64" waitingTime="89.00" waitingCount="10" stopTime="0.00" timeLoss="1235.88" rerouteNo="19" devices="tripinfo_18" vType="rail18@18" speedFactor="1.00" vaporized=""/>
    <tripinfo id="19" depart="563.00" departLane="E3_0" departPos="100.10" departSpeed="0.00" departDelay="210.00" arrival="3557.00" arrivalLane="E51_0" arrivalPos="100.00" arrivalSpeed="15.00" duration="2994.00" routeLength="42539.15" waitingTime="101.00" waitingCount="11" stopTime="0.00" timeLoss="1239.98" rerouteNo="19" devices="tripinfo_19" vType="rail19@19" speedFactor="1.00" vaporized=""/>
    <tripinfo id="20" depart="583.00" departLane="E3_0" departPos="100.10" departSpeed="0.00" departDelay="208.00" arrival="3806.00" arrivalLane="E29_0" arrivalPos="109.67" arrivalSpeed="15.00" duration="3223.00" routeLength="41278.17" waitingTime="335.00" waitingCount="9" stopTime="0.00" timeLoss="1559.17" rerouteNo="17" devices="tripinfo_20" vType="rail20@20" speedFactor="1.00" vaporized=""/>
    <tripinfo id="21" depart="612.00" departLane="E3_0" departPos="100.10" departSpeed="0.00" departDelay="215.00" arrival="3814.00" arrivalLane="E29_0" arrivalPos="109.67" arrivalSpeed="15.00" duration="3202.00" routeLength="41278.17" waitingTime="342.00" waitingCount="6" stopTime="0.00" timeLoss="1537.91" rerouteNo="17" devices="tripinfo_21" vType="rail21@21" speedFactor="1.00" vaporized=""/>
    <tripinfo id="22" depart="923.00" departLane="E3_0" departPos="100.10" departSpeed="0.00" departDelay="504.00" arrival="3822.00" arrivalLane="E29_0" arrivalPos="109.67" arrivalSpeed="15.00" duration="2899.00" routeLength="41278.17" waitingTime="191.00" waitingCount="7" stopTime="0.00" timeLoss="1233.50" rerouteNo="17" devices="tripinfo_22" vType="rail22@22" speedFactor="1.00" vaporized=""/>
    <tripinfo id="23" depart="947.00" departLane="E3_0" departPos="100.10" departSpeed="0.00" departDelay="506.00" arrival="3829.00" arrivalLane="E29_0" arrivalPos="109.67" arrivalSpeed="15.00" duration="2882.00" routeLength="41278.17" waitingTime="170.00" waitingCount="9" stopTime="0.00" timeLoss="1214.06" rerouteNo="17" devices="tripinfo_23" vType="rail23@23" speedFactor="1.00" vaporized=""/>
    <tripinfo id="24" depart="973.00" departLane="E3_0" departPos="100.10" departSpeed="0.00" departDelay="510.00" arrival="3837.00" arrivalLane="E29_0" arrivalPos="109.67" arrivalSpeed="15.00" duration="2864.00" routeLength="36625.26" waitingTime="581.00" waitingCount="19" stopTime="0.00" timeLoss="1385.69" rerouteNo="15" devices="tripinfo_24" vType="rail24@24" speedFactor="1.00" vaporized=""/>
    <tripinfo id="25" depart="1012.00" departLane="E3_0" departPos="100.10" departSpeed="0.00" departDelay="527.00" arrival="3845.00" arrivalLane="E29_0" arrivalPos="109.67" arrivalSpeed="15.00" duration="2833.00" routeLength="36625.26" waitingTime="592.00" waitingCount="13" stopTime="0.00" timeLoss="1355.85" rerouteNo="15" devices="tripinfo_25" vType="rail25@25" speedFactor="1.00" vaporized=""/>
    <tripinfo id="26" depart="1252.00" departLane="E3_0" departPos="100.10" departSpeed="0.00" departDelay="745.00" arrival="3852.00" arrivalLane="E29_0" arrivalPos="109.67" arrivalSpeed="15.00" duration="2600.00" routeLength="36625.26" waitingTime="304.00" waitingCount="26" stopTime="0.00" timeLoss="1123.56" rerouteNo="15" devices="tripinfo_26" vType="rail26@26" speedFactor="1.00" vaporized=""/>
    <tripinfo id="27" depart="1271.00" departLane="E3_0" departPos="100.10" departSpeed="0.00" departDelay="742.00" arrival="3860.00" arrivalLane="E29_0" arrivalPos="109.67" arrivalSpeed="15.00" duration="2589.00" routeLength="36625.26" waitingTime="205.00" waitingCount="19" stopTime="0.00" timeLoss="1114.18" rerouteNo="15" devices="tripinfo_27" vType="rail27@27" speedFactor="1.00" vaporized=""/>
    <tripinfo id="28" depart="1290.00" departLane="E3_0" departPos="100.10" departSpeed="0.00" departDelay="739.00" arrival="3870.00" arrivalLane="E29_0" arrivalPos="109.67" arrivalSpeed="15.30" duration="2580.00" routeLength="31972.35" waitingTime="492.00" waitingCount="9" stopTime="0.00" timeLoss="1290.82" rerouteNo="13" devices="tripinfo_28" vType="rail28@28" speedFactor="1.00" vaporized=""/>
    <tripinfo id="29" depart="1317.00" departLane="E3_0" departPos="100.10" departSpeed="0.00" departDelay="744.00" arrival="3962.00" arrivalLane="E48_0" arrivalPos="100.00" arrivalSpeed="15.00" duration="2645.00" routeLength="33233.82" waitingTime="517.00" waitingCount="6" stopTime="0.00" timeLoss="1272.46" rerouteNo="14" devices="tripinfo_29" vType="rail29@29" speedFactor="1.00" vaporized=""/>
</tripinfos>
