<?xml version="1.0" encoding="UTF-8"?>

<!-- generated on 2022-12-20 17:57:31 by Eclipse SUMO GUI Version 1.14.1
<configuration xmlns:xsi="http://www.w3.org/2001/XMLSchema-instance" xsi:noNamespaceSchemaLocation="http://sumo.dlr.de/xsd/sumoConfiguration.xsd">

    <input>
        <net-file value="railvc2.net.xml"/>
        <route-files value="railvc.rou.xml"/>
        <additional-files value="railvc2.add.xml"/>
    </input>

    <output>
        <tripinfo-output value="tripinfo.xml"/>
    </output>

    <processing>
        <time-to-teleport value="-1"/>
    </processing>

    <traci_server>
        <remote-port value="57883"/>
    </traci_server>

</configuration>
-->

<tripinfos xmlns:xsi="http://www.w3.org/2001/XMLSchema-instance" xsi:noNamespaceSchemaLocation="http://sumo.dlr.de/xsd/tripinfo_file.xsd">
    <tripinfo id="0" depart="0.00" departLane="E1_0" departPos="100.10" departSpeed="0.00" departDelay="0.00" arrival="489.00" arrivalLane="E48_0" arrivalPos="100.00" arrivalSpeed="14.00" duration="489.00" routeLength="6688.14" waitingTime="0.00" waitingCount="0" stopTime="0.00" timeLoss="235.51" rerouteNo="5" devices="tripinfo_0" vType="rail0@0" speedFactor="1.00" vaporized=""/>
    <tripinfo id="1" depart="0.00" departLane="E2_0" departPos="100.10" departSpeed="0.00" departDelay="0.00" arrival="504.00" arrivalLane="E51_0" arrivalPos="100.00" arrivalSpeed="14.00" duration="504.00" routeLength="6714.46" waitingTime="2.00" waitingCount="1" stopTime="0.00" timeLoss="243.19" rerouteNo="5" devices="tripinfo_1" vType="rail1@1" speedFactor="1.00" vaporized=""/>
    <tripinfo id="2" depart="0.00" departLane="E3_0" departPos="100.10" departSpeed="0.00" departDelay="0.00" arrival="741.00" arrivalLane="E48_0" arrivalPos="100.00" arrivalSpeed="14.00" duration="741.00" routeLength="9834.47" waitingTime="0.00" waitingCount="0" stopTime="0.00" timeLoss="366.32" rerouteNo="7" devices="tripinfo_2" vType="rail2@2" speedFactor="1.00" vaporized=""/>
    <tripinfo id="3" depart="25.00" departLane="E3_0" departPos="100.10" departSpeed="0.00" departDelay="0.00" arrival="757.00" arrivalLane="E51_0" arrivalPos="100.00" arrivalSpeed="14.00" duration="732.00" routeLength="9833.96" waitingTime="0.00" waitingCount="0" stopTime="0.00" timeLoss="360.19" rerouteNo="7" devices="tripinfo_3" vType="rail3@3" speedFactor="1.00" vaporized=""/>
    <tripinfo id="4" depart="69.00" departLane="E3_0" departPos="100.10" departSpeed="0.00" departDelay="19.00" arrival="994.00" arrivalLane="E48_0" arrivalPos="100.00" arrivalSpeed="14.00" duration="925.00" routeLength="12871.94" waitingTime="1.00" waitingCount="1" stopTime="0.00" timeLoss="452.11" rerouteNo="9" devices="tripinfo_4" vType="rail4@4" speedFactor="1.00" vaporized=""/>
    <tripinfo id="5" depart="97.00" departLane="E3_0" departPos="100.10" departSpeed="0.00" departDelay="22.00" arrival="1010.00" arrivalLane="E51_0" arrivalPos="100.00" arrivalSpeed="14.00" duration="913.00" routeLength="12871.43" waitingTime="1.00" waitingCount="1" stopTime="0.00" timeLoss="439.75" rerouteNo="9" devices="tripinfo_5" vType="rail5@5" speedFactor="1.00" vaporized=""/>
    <tripinfo id="6" depart="126.00" departLane="E3_0" departPos="100.10" departSpeed="0.00" departDelay="26.00" arrival="1247.00" arrivalLane="E48_0" arrivalPos="100.00" arrivalSpeed="14.00" duration="1121.00" routeLength="15909.41" waitingTime="3.00" waitingCount="1" stopTime="0.00" timeLoss="543.96" rerouteNo="11" devices="tripinfo_6" vType="rail6@6" speedFactor="1.00" vaporized=""/>
    <tripinfo id="7" depart="155.00" departLane="E3_0" departPos="100.10" departSpeed="0.00" departDelay="30.00" arrival="1263.00" arrivalLane="E51_0" arrivalPos="100.00" arrivalSpeed="14.00" duration="1108.00" routeLength="12871.43" waitingTime="5.00" waitingCount="2" stopTime="0.00" timeLoss="634.46" rerouteNo="9" devices="tripinfo_7" vType="rail7@7" speedFactor="1.00" vaporized=""/>
    <tripinfo id="8" depart="184.00" departLane="E3_0" departPos="100.10" departSpeed="0.00" departDelay="34.00" arrival="1501.00" arrivalLane="E48_0" arrivalPos="100.00" arrivalSpeed="14.00" duration="1317.00" routeLength="15909.41" waitingTime="5.00" waitingCount="2" stopTime="0.00" timeLoss="739.73" rerouteNo="11" devices="tripinfo_8" vType="rail8@8" speedFactor="1.00" vaporized=""/>
    <tripinfo id="9" depart="353.00" departLane="E3_0" departPos="100.10" departSpeed="0.00" departDelay="178.00" arrival="1516.00" arrivalLane="E51_0" arrivalPos="100.00" arrivalSpeed="14.00" duration="1163.00" routeLength="12871.43" waitingTime="141.00" waitingCount="4" stopTime="0.00" timeLoss="689.23" rerouteNo="9" devices="tripinfo_9" vType="rail9@9" speedFactor="1.00" vaporized=""/>
    <tripinfo id="10" depart="391.00" departLane="E3_0" departPos="100.10" departSpeed="0.00" departDelay="191.00" arrival="1754.00" arrivalLane="E48_0" arrivalPos="100.00" arrivalSpeed="14.00" duration="1363.00" routeLength="15909.41" waitingTime="7.00" waitingCount="3" stopTime="0.00" timeLoss="786.82" rerouteNo="11" devices="tripinfo_10" vType="rail10@10" speedFactor="1.00" vaporized=""/>
    <tripinfo id="11" depart="421.00" departLane="E3_0" departPos="100.10" departSpeed="0.00" departDelay="196.00" arrival="1770.00" arrivalLane="E51_0" arrivalPos="100.00" arrivalSpeed="14.00" duration="1349.00" routeLength="15908.90" waitingTime="10.00" waitingCount="4" stopTime="0.00" timeLoss="771.79" rerouteNo="11" devices="tripinfo_11" vType="rail11@11" speedFactor="1.00" vaporized=""/>
    <tripinfo id="12" depart="594.00" departLane="E3_0" departPos="100.10" departSpeed="0.00" departDelay="344.00" arrival="2008.00" arrivalLane="E48_0" arrivalPos="100.00" arrivalSpeed="14.00" duration="1414.00" routeLength="18946.88" waitingTime="13.00" waitingCount="5" stopTime="0.00" timeLoss="732.64" rerouteNo="13" devices="tripinfo_12" vType="rail12@12" speedFactor="1.00" vaporized=""/>
    <tripinfo id="13" depart="625.00" departLane="E3_0" departPos="100.10" departSpeed="0.00" departDelay="350.00" arrival="2023.00" arrivalLane="E51_0" arrivalPos="100.00" arrivalSpeed="14.00" duration="1398.00" routeLength="15908.90" waitingTime="14.00" waitingCount="7" stopTime="0.00" timeLoss="821.44" rerouteNo="11" devices="tripinfo_13" vType="rail13@13" speedFactor="1.00" vaporized=""/>
    <tripinfo id="14" depart="656.00" departLane="E3_0" departPos="100.10" departSpeed="0.00" departDelay="356.00" arrival="2262.00" arrivalLane="E48_0" arrivalPos="100.00" arrivalSpeed="14.00" duration="1606.00" routeLength="18946.88" waitingTime="14.00" waitingCount="6" stopTime="0.00" timeLoss="921.38" rerouteNo="13" devices="tripinfo_14" vType="rail14@14" speedFactor="1.00" vaporized=""/>
    <tripinfo id="15" depart="845.00" departLane="E3_0" departPos="100.10" departSpeed="0.00" departDelay="520.00" arrival="2277.00" arrivalLane="E51_0" arrivalPos="100.00" arrivalSpeed="14.00" duration="1432.00" routeLength="18946.37" waitingTime="17.00" waitingCount="7" stopTime="0.00" timeLoss="750.72" rerouteNo="13" devices="tripinfo_15" vType="rail15@15" speedFactor="1.00" vaporized=""/>
    <tripinfo id="16" depart="875.00" departLane="E3_0" departPos="100.10" departSpeed="0.00" departDelay="525.00" arrival="2516.00" arrivalLane="E48_0" arrivalPos="100.00" arrivalSpeed="14.00" duration="1641.00" routeLength="18946.88" waitingTime="132.00" waitingCount="8" stopTime="0.00" timeLoss="960.41" rerouteNo="13" devices="tripinfo_16" vType="rail16@16" speedFactor="1.00" vaporized=""/>
    <tripinfo id="17" depart="905.00" departLane="E3_0" departPos="100.10" departSpeed="0.00" departDelay="530.00" arrival="2531.00" arrivalLane="E51_0" arrivalPos="100.00" arrivalSpeed="14.00" duration="1626.00" routeLength="18946.37" waitingTime="21.00" waitingCount="8" stopTime="0.00" timeLoss="945.74" rerouteNo="13" devices="tripinfo_17" vType="rail17@17" speedFactor="1.00" vaporized=""/>
    <tripinfo id="18" depart="933.00" departLane="E3_0" departPos="100.10" departSpeed="0.00" departDelay="533.00" arrival="2768.00" arrivalLane="E48_0" arrivalPos="100.00" arrivalSpeed="14.00" duration="1835.00" routeLength="21984.35" waitingTime="24.00" waitingCount="8" stopTime="0.00" timeLoss="1044.21" rerouteNo="15" devices="tripinfo_18" vType="rail18@18" speedFactor="1.00" vaporized=""/>
    <tripinfo id="19" depart="1123.00" departLane="E3_0" departPos="100.10" departSpeed="0.00" departDelay="698.00" arrival="2784.00" arrivalLane="E51_0" arrivalPos="100.00" arrivalSpeed="14.00" duration="1661.00" routeLength="18946.37" waitingTime="185.00" waitingCount="10" stopTime="0.00" timeLoss="977.07" rerouteNo="13" devices="tripinfo_19" vType="rail19@19" speedFactor="1.00" vaporized=""/>
    <tripinfo id="20" depart="1154.00" departLane="E3_0" departPos="100.10" departSpeed="0.00" departDelay="704.00" arrival="3022.00" arrivalLane="E48_0" arrivalPos="100.00" arrivalSpeed="14.00" duration="1868.00" routeLength="21984.35" waitingTime="28.00" waitingCount="7" stopTime="0.00" timeLoss="1079.71" rerouteNo="15" devices="tripinfo_20" vType="rail20@20" speedFactor="1.00" vaporized=""/>
    <tripinfo id="21" depart="1184.00" departLane="E3_0" departPos="100.10" departSpeed="0.00" departDelay="709.00" arrival="3255.00" arrivalLane="E48_0" arrivalPos="100.00" arrivalSpeed="14.00" duration="2071.00" routeLength="25021.82" waitingTime="29.00" waitingCount="9" stopTime="0.00" timeLoss="1182.62" rerouteNo="19" devices="tripinfo_21" vType="rail21@21" speedFactor="1.00" vaporized=""/>
</tripinfos>
