<?xml version="1.0" encoding="UTF-8"?>

<!-- generated on 2023-01-03 11:41:40 by Eclipse SUMO GUI Version 1.14.1
<configuration xmlns:xsi="http://www.w3.org/2001/XMLSchema-instance" xsi:noNamespaceSchemaLocation="http://sumo.dlr.de/xsd/sumoConfiguration.xsd">

    <input>
        <net-file value="railvc2.net.xml"/>
        <route-files value="railvc.rou.xml"/>
        <additional-files value="railvc2.add.xml"/>
    </input>

    <output>
        <tripinfo-output value="tripinfo.xml"/>
    </output>

    <processing>
        <time-to-teleport value="-1"/>
    </processing>

    <traci_server>
        <remote-port value="50742"/>
    </traci_server>

</configuration>
-->

<tripinfos xmlns:xsi="http://www.w3.org/2001/XMLSchema-instance" xsi:noNamespaceSchemaLocation="http://sumo.dlr.de/xsd/tripinfo_file.xsd">
    <tripinfo id="0" depart="0.00" departLane="E1_0" departPos="100.10" departSpeed="0.00" departDelay="0.00" arrival="355.00" arrivalLane="E48_0" arrivalPos="100.00" arrivalSpeed="20.00" duration="355.00" routeLength="6688.14" waitingTime="0.00" waitingCount="0" stopTime="0.00" timeLoss="101.66" rerouteNo="5" devices="tripinfo_0" vType="rail0@0" speedFactor="1.00" vaporized=""/>
    <tripinfo id="1" depart="0.00" departLane="E2_0" departPos="100.10" departSpeed="0.00" departDelay="0.00" arrival="364.00" arrivalLane="E51_0" arrivalPos="100.00" arrivalSpeed="20.00" duration="364.00" routeLength="6714.46" waitingTime="2.00" waitingCount="1" stopTime="0.00" timeLoss="98.95" rerouteNo="5" devices="tripinfo_1" vType="rail1@1" speedFactor="1.00" vaporized=""/>
    <tripinfo id="2" depart="0.00" departLane="E3_0" departPos="100.10" departSpeed="0.00" departDelay="0.00" arrival="526.00" arrivalLane="E48_0" arrivalPos="100.00" arrivalSpeed="20.00" duration="526.00" routeLength="9834.47" waitingTime="0.00" waitingCount="0" stopTime="0.00" timeLoss="154.30" rerouteNo="7" devices="tripinfo_2" vType="rail2@2" speedFactor="1.00" vaporized=""/>
    <tripinfo id="3" depart="25.00" departLane="E3_0" departPos="100.10" departSpeed="0.00" departDelay="0.00" arrival="536.00" arrivalLane="E51_0" arrivalPos="100.00" arrivalSpeed="20.00" duration="511.00" routeLength="9833.96" waitingTime="0.00" waitingCount="0" stopTime="0.00" timeLoss="136.93" rerouteNo="7" devices="tripinfo_3" vType="rail3@3" speedFactor="1.00" vaporized=""/>
    <tripinfo id="4" depart="69.00" departLane="E3_0" departPos="100.10" departSpeed="0.00" departDelay="19.00" arrival="699.00" arrivalLane="E48_0" arrivalPos="100.00" arrivalSpeed="20.00" duration="630.00" routeLength="12871.94" waitingTime="0.00" waitingCount="0" stopTime="0.00" timeLoss="156.49" rerouteNo="9" devices="tripinfo_4" vType="rail4@4" speedFactor="1.00" vaporized=""/>
    <tripinfo id="5" depart="96.00" departLane="E3_0" departPos="100.10" departSpeed="0.00" departDelay="21.00" arrival="708.00" arrivalLane="E51_0" arrivalPos="100.00" arrivalSpeed="20.00" duration="612.00" routeLength="12871.43" waitingTime="0.00" waitingCount="0" stopTime="0.00" timeLoss="139.48" rerouteNo="9" devices="tripinfo_5" vType="rail5@5" speedFactor="1.00" vaporized=""/>
    <tripinfo id="6" depart="126.00" departLane="E3_0" departPos="100.10" departSpeed="0.00" departDelay="26.00" arrival="873.00" arrivalLane="E48_0" arrivalPos="100.00" arrivalSpeed="20.00" duration="747.00" routeLength="12871.94" waitingTime="0.00" waitingCount="0" stopTime="0.00" timeLoss="269.59" rerouteNo="9" devices="tripinfo_6" vType="rail6@6" speedFactor="1.00" vaporized=""/>
    <tripinfo id="7" depart="154.00" departLane="E3_0" departPos="100.10" departSpeed="0.00" departDelay="29.00" arrival="883.00" arrivalLane="E51_0" arrivalPos="100.00" arrivalSpeed="20.00" duration="729.00" routeLength="9833.96" waitingTime="0.00" waitingCount="0" stopTime="0.00" timeLoss="354.75" rerouteNo="7" devices="tripinfo_7" vType="rail7@7" speedFactor="1.00" vaporized=""/>
    <tripinfo id="8" depart="291.00" departLane="E3_0" departPos="100.10" departSpeed="0.00" departDelay="141.00" arrival="1048.00" arrivalLane="E48_0" arrivalPos="100.00" arrivalSpeed="20.00" duration="757.00" routeLength="9834.47" waitingTime="82.00" waitingCount="1" stopTime="0.00" timeLoss="386.91" rerouteNo="7" devices="tripinfo_8" vType="rail8@8" speedFactor="1.00" vaporized=""/>
    <tripinfo id="9" depart="445.00" departLane="E3_0" departPos="100.10" departSpeed="0.00" departDelay="270.00" arrival="1059.00" arrivalLane="E51_0" arrivalPos="100.00" arrivalSpeed="20.00" duration="614.00" routeLength="9833.96" waitingTime="0.00" waitingCount="0" stopTime="0.00" timeLoss="244.27" rerouteNo="7" devices="tripinfo_9" vType="rail9@9" speedFactor="1.00" vaporized=""/>
    <tripinfo id="10" depart="484.00" departLane="E3_0" departPos="100.10" departSpeed="0.00" departDelay="284.00" arrival="1219.00" arrivalLane="E48_0" arrivalPos="100.00" arrivalSpeed="20.00" duration="735.00" routeLength="12871.94" waitingTime="0.00" waitingCount="0" stopTime="0.00" timeLoss="261.36" rerouteNo="9" devices="tripinfo_10" vType="rail10@10" speedFactor="1.00" vaporized=""/>
    <tripinfo id="11" depart="619.00" departLane="E3_0" departPos="100.10" departSpeed="0.00" departDelay="394.00" arrival="1228.00" arrivalLane="E51_0" arrivalPos="100.00" arrivalSpeed="20.00" duration="609.00" routeLength="9833.96" waitingTime="0.00" waitingCount="0" stopTime="0.00" timeLoss="234.90" rerouteNo="7" devices="tripinfo_11" vType="rail11@11" speedFactor="1.00" vaporized=""/>
    <tripinfo id="12" depart="650.00" departLane="E3_0" departPos="100.10" departSpeed="0.00" departDelay="400.00" arrival="1393.00" arrivalLane="E48_0" arrivalPos="100.00" arrivalSpeed="20.00" duration="743.00" routeLength="9834.47" waitingTime="83.00" waitingCount="1" stopTime="0.00" timeLoss="373.00" rerouteNo="7" devices="tripinfo_12" vType="rail12@12" speedFactor="1.00" vaporized=""/>
    <tripinfo id="13" depart="790.00" departLane="E3_0" departPos="100.10" departSpeed="0.00" departDelay="515.00" arrival="1404.00" arrivalLane="E51_0" arrivalPos="100.00" arrivalSpeed="20.00" duration="614.00" routeLength="9833.96" waitingTime="0.00" waitingCount="0" stopTime="0.00" timeLoss="243.93" rerouteNo="7" devices="tripinfo_13" vType="rail13@13" speedFactor="1.00" vaporized=""/>
    <tripinfo id="14" depart="831.00" departLane="E3_0" departPos="100.10" departSpeed="0.00" departDelay="531.00" arrival="1562.00" arrivalLane="E48_0" arrivalPos="100.00" arrivalSpeed="20.00" duration="731.00" routeLength="12871.94" waitingTime="0.00" waitingCount="0" stopTime="0.00" timeLoss="252.36" rerouteNo="9" devices="tripinfo_14" vType="rail14@14" speedFactor="1.00" vaporized=""/>
    <tripinfo id="15" depart="966.00" departLane="E3_0" departPos="100.10" departSpeed="0.00" departDelay="641.00" arrival="1573.00" arrivalLane="E51_0" arrivalPos="100.00" arrivalSpeed="20.00" duration="607.00" routeLength="9833.96" waitingTime="0.00" waitingCount="0" stopTime="0.00" timeLoss="233.26" rerouteNo="7" devices="tripinfo_15" vType="rail15@15" speedFactor="1.00" vaporized=""/>
    <tripinfo id="16" depart="997.00" departLane="E3_0" departPos="100.10" departSpeed="0.00" departDelay="647.00" arrival="1738.00" arrivalLane="E48_0" arrivalPos="100.00" arrivalSpeed="20.00" duration="741.00" routeLength="9834.47" waitingTime="33.00" waitingCount="1" stopTime="0.00" timeLoss="370.62" rerouteNo="7" devices="tripinfo_16" vType="rail16@16" speedFactor="1.00" vaporized=""/>
    <tripinfo id="17" depart="1137.00" departLane="E3_0" departPos="100.10" departSpeed="0.00" departDelay="762.00" arrival="1749.00" arrivalLane="E51_0" arrivalPos="100.00" arrivalSpeed="20.00" duration="612.00" routeLength="9833.96" waitingTime="0.00" waitingCount="0" stopTime="0.00" timeLoss="238.75" rerouteNo="7" devices="tripinfo_17" vType="rail17@17" speedFactor="1.00" vaporized=""/>
</tripinfos>
