<?xml version="1.0" encoding="UTF-8"?>

<!-- generated on 2022-12-19 16:36:15 by Eclipse SUMO GUI Version 1.14.1
<configuration xmlns:xsi="http://www.w3.org/2001/XMLSchema-instance" xsi:noNamespaceSchemaLocation="http://sumo.dlr.de/xsd/sumoConfiguration.xsd">

    <input>
        <net-file value="railvc.net.xml"/>
        <route-files value="railvc.rou.xml"/>
        <additional-files value="railvc.add.xml"/>
    </input>

    <output>
        <tripinfo-output value="tripinfo.xml"/>
    </output>

    <processing>
        <time-to-teleport value="-1"/>
    </processing>

    <traci_server>
        <remote-port value="50691"/>
    </traci_server>

</configuration>
-->

<tripinfos xmlns:xsi="http://www.w3.org/2001/XMLSchema-instance" xsi:noNamespaceSchemaLocation="http://sumo.dlr.de/xsd/tripinfo_file.xsd">
    <tripinfo id="0" depart="0.00" departLane="E1_0" departPos="100.10" departSpeed="0.00" departDelay="0.00" arrival="387.00" arrivalLane="E48_0" arrivalPos="100.00" arrivalSpeed="14.00" duration="387.00" routeLength="5266.38" waitingTime="0.00" waitingCount="0" stopTime="0.00" timeLoss="150.82" rerouteNo="3" devices="tripinfo_0" vType="rail0@0" speedFactor="1.00" vaporized=""/>
    <tripinfo id="1" depart="0.00" departLane="E2_0" departPos="100.10" departSpeed="0.00" departDelay="0.00" arrival="407.00" arrivalLane="E51_0" arrivalPos="100.00" arrivalSpeed="14.00" duration="407.00" routeLength="5292.64" waitingTime="2.00" waitingCount="1" stopTime="0.00" timeLoss="165.74" rerouteNo="3" devices="tripinfo_1" vType="rail1@1" speedFactor="1.00" vaporized=""/>
    <tripinfo id="2" depart="0.00" departLane="E3_0" departPos="100.10" departSpeed="0.00" departDelay="0.00" arrival="762.00" arrivalLane="E48_0" arrivalPos="100.00" arrivalSpeed="14.00" duration="762.00" routeLength="9969.32" waitingTime="0.00" waitingCount="0" stopTime="0.00" timeLoss="334.36" rerouteNo="5" devices="tripinfo_2" vType="rail2@2" speedFactor="1.00" vaporized=""/>
    <tripinfo id="3" depart="25.00" departLane="E3_0" departPos="100.10" departSpeed="0.00" departDelay="0.00" arrival="782.00" arrivalLane="E51_0" arrivalPos="100.00" arrivalSpeed="14.00" duration="757.00" routeLength="9968.83" waitingTime="1.00" waitingCount="1" stopTime="0.00" timeLoss="329.73" rerouteNo="5" devices="tripinfo_3" vType="rail3@3" speedFactor="1.00" vaporized=""/>
    <tripinfo id="4" depart="66.00" departLane="E3_0" departPos="100.10" departSpeed="0.00" departDelay="16.00" arrival="1137.00" arrivalLane="E48_0" arrivalPos="100.00" arrivalSpeed="14.00" duration="1071.00" routeLength="14622.24" waitingTime="10.00" waitingCount="1" stopTime="0.00" timeLoss="457.32" rerouteNo="7" devices="tripinfo_4" vType="rail4@4" speedFactor="1.00" vaporized=""/>
    <tripinfo id="5" depart="85.00" departLane="E3_0" departPos="100.10" departSpeed="0.00" departDelay="10.00" arrival="1157.00" arrivalLane="E51_0" arrivalPos="100.00" arrivalSpeed="14.00" duration="1072.00" routeLength="14621.75" waitingTime="12.00" waitingCount="2" stopTime="0.00" timeLoss="457.70" rerouteNo="7" devices="tripinfo_5" vType="rail5@5" speedFactor="1.00" vaporized=""/>
    <tripinfo id="6" depart="103.00" departLane="E3_0" departPos="100.10" departSpeed="0.00" departDelay="3.00" arrival="1512.00" arrivalLane="E48_0" arrivalPos="100.00" arrivalSpeed="14.00" duration="1409.00" routeLength="19275.16" waitingTime="20.00" waitingCount="2" stopTime="0.00" timeLoss="605.11" rerouteNo="9" devices="tripinfo_6" vType="rail6@6" speedFactor="1.00" vaporized=""/>
    <tripinfo id="7" depart="125.00" departLane="E3_0" departPos="100.10" departSpeed="0.00" departDelay="0.00" arrival="1532.00" arrivalLane="E51_0" arrivalPos="100.00" arrivalSpeed="14.00" duration="1407.00" routeLength="19274.67" waitingTime="12.00" waitingCount="2" stopTime="0.00" timeLoss="605.57" rerouteNo="9" devices="tripinfo_7" vType="rail7@7" speedFactor="1.00" vaporized=""/>
    <tripinfo id="8" depart="150.00" departLane="E3_0" departPos="100.10" departSpeed="0.00" departDelay="0.00" arrival="1888.00" arrivalLane="E48_0" arrivalPos="100.00" arrivalSpeed="14.00" duration="1738.00" routeLength="23928.08" waitingTime="17.00" waitingCount="4" stopTime="0.00" timeLoss="748.37" rerouteNo="11" devices="tripinfo_8" vType="rail8@8" speedFactor="1.00" vaporized=""/>
    <tripinfo id="9" depart="175.00" departLane="E3_0" departPos="100.10" departSpeed="0.00" departDelay="0.00" arrival="1908.00" arrivalLane="E51_0" arrivalPos="100.00" arrivalSpeed="14.00" duration="1733.00" routeLength="23927.59" waitingTime="19.00" waitingCount="5" stopTime="0.00" timeLoss="744.72" rerouteNo="11" devices="tripinfo_9" vType="rail9@9" speedFactor="1.00" vaporized=""/>
    <tripinfo id="10" depart="200.00" departLane="E3_0" departPos="100.10" departSpeed="0.00" departDelay="0.00" arrival="2263.00" arrivalLane="E48_0" arrivalPos="100.00" arrivalSpeed="14.00" duration="2063.00" routeLength="28581.00" waitingTime="24.00" waitingCount="6" stopTime="0.00" timeLoss="888.47" rerouteNo="13" devices="tripinfo_10" vType="rail10@10" speedFactor="1.00" vaporized=""/>
    <tripinfo id="11" depart="225.00" departLane="E3_0" departPos="100.10" departSpeed="0.00" departDelay="0.00" arrival="2283.00" arrivalLane="E51_0" arrivalPos="100.00" arrivalSpeed="14.00" duration="2058.00" routeLength="28580.51" waitingTime="34.00" waitingCount="7" stopTime="0.00" timeLoss="877.84" rerouteNo="13" devices="tripinfo_11" vType="rail11@11" speedFactor="1.00" vaporized=""/>
    <tripinfo id="12" depart="250.00" departLane="E3_0" departPos="100.10" departSpeed="0.00" departDelay="0.00" arrival="2639.00" arrivalLane="E48_0" arrivalPos="100.00" arrivalSpeed="14.00" duration="2389.00" routeLength="33233.92" waitingTime="46.00" waitingCount="8" stopTime="0.00" timeLoss="1027.53" rerouteNo="15" devices="tripinfo_12" vType="rail12@12" speedFactor="1.00" vaporized=""/>
    <tripinfo id="13" depart="275.00" departLane="E3_0" departPos="100.10" departSpeed="0.00" departDelay="0.00" arrival="2659.00" arrivalLane="E51_0" arrivalPos="100.00" arrivalSpeed="14.00" duration="2384.00" routeLength="33233.43" waitingTime="47.00" waitingCount="8" stopTime="0.00" timeLoss="1021.70" rerouteNo="15" devices="tripinfo_13" vType="rail13@13" speedFactor="1.00" vaporized=""/>
    <tripinfo id="14" depart="300.00" departLane="E3_0" departPos="100.10" departSpeed="0.00" departDelay="0.00" arrival="3015.00" arrivalLane="E48_0" arrivalPos="100.00" arrivalSpeed="14.00" duration="2715.00" routeLength="33233.92" waitingTime="51.00" waitingCount="9" stopTime="0.00" timeLoss="1346.07" rerouteNo="15" devices="tripinfo_14" vType="rail14@14" speedFactor="1.00" vaporized=""/>
    <tripinfo id="15" depart="325.00" departLane="E3_0" departPos="100.10" departSpeed="0.00" departDelay="0.00" arrival="3034.00" arrivalLane="E51_0" arrivalPos="100.00" arrivalSpeed="14.00" duration="2709.00" routeLength="33233.43" waitingTime="56.00" waitingCount="10" stopTime="0.00" timeLoss="1343.61" rerouteNo="15" devices="tripinfo_15" vType="rail15@15" speedFactor="1.00" vaporized=""/>
    <tripinfo id="16" depart="549.00" departLane="E3_0" departPos="100.10" departSpeed="0.00" departDelay="199.00" arrival="3390.00" arrivalLane="E48_0" arrivalPos="100.00" arrivalSpeed="14.00" duration="2841.00" routeLength="37886.84" waitingTime="65.00" waitingCount="12" stopTime="0.00" timeLoss="1288.73" rerouteNo="17" devices="tripinfo_16" vType="rail16@16" speedFactor="1.00" vaporized=""/>
    <tripinfo id="17" depart="570.00" departLane="E3_0" departPos="100.10" departSpeed="0.00" departDelay="195.00" arrival="3409.00" arrivalLane="E51_0" arrivalPos="100.00" arrivalSpeed="14.00" duration="2839.00" routeLength="37886.35" waitingTime="72.00" waitingCount="12" stopTime="0.00" timeLoss="1291.50" rerouteNo="17" devices="tripinfo_17" vType="rail17@17" speedFactor="1.00" vaporized=""/>
    <tripinfo id="18" depart="588.00" departLane="E3_0" departPos="100.10" departSpeed="0.00" departDelay="188.00" arrival="3764.00" arrivalLane="E48_0" arrivalPos="100.00" arrivalSpeed="14.00" duration="3176.00" routeLength="42539.76" waitingTime="83.00" waitingCount="15" stopTime="0.00" timeLoss="1437.32" rerouteNo="19" devices="tripinfo_18" vType="rail18@18" speedFactor="1.00" vaporized=""/>
    <tripinfo id="19" depart="606.00" departLane="E3_0" departPos="100.10" departSpeed="0.00" departDelay="181.00" arrival="3783.00" arrivalLane="E51_0" arrivalPos="100.00" arrivalSpeed="14.00" duration="3177.00" routeLength="42539.27" waitingTime="93.00" waitingCount="16" stopTime="0.00" timeLoss="1442.76" rerouteNo="19" devices="tripinfo_19" vType="rail19@19" speedFactor="1.00" vaporized=""/>
    <tripinfo id="20" depart="624.00" departLane="E3_0" departPos="100.10" departSpeed="0.00" departDelay="174.00" arrival="3812.00" arrivalLane="E6_0" arrivalPos="199.53" arrivalSpeed="14.00" duration="3188.00" routeLength="42599.08" waitingTime="107.00" waitingCount="17" stopTime="0.00" timeLoss="1462.12" rerouteNo="18" devices="tripinfo_20" vType="rail20@20" speedFactor="1.00" vaporized=""/>
    <tripinfo id="21" depart="642.00" departLane="E3_0" departPos="100.10" departSpeed="0.00" departDelay="167.00" arrival="4148.00" arrivalLane="E48_0" arrivalPos="100.00" arrivalSpeed="14.00" duration="3506.00" routeLength="47192.68" waitingTime="125.00" waitingCount="17" stopTime="0.00" timeLoss="1582.53" rerouteNo="19" devices="tripinfo_21" vType="rail21@21" speedFactor="1.00" vaporized=""/>
</tripinfos>
