<?xml version="1.0" encoding="UTF-8"?>

<!-- generated on 2022-10-07 09:46:30 by Eclipse SUMO GUI Version 1.14.1
<configuration xmlns:xsi="http://www.w3.org/2001/XMLSchema-instance" xsi:noNamespaceSchemaLocation="http://sumo.dlr.de/xsd/sumoConfiguration.xsd">

    <input>
        <net-file value="railvc2.net.xml"/>
        <route-files value="railvc2.rou.xml"/>
        <additional-files value="railvc2.add.xml"/>
    </input>

    <output>
        <tripinfo-output value="tripinfo.xml"/>
    </output>

    <processing>
        <time-to-teleport value="-1"/>
    </processing>

    <traci_server>
        <remote-port value="50466"/>
    </traci_server>

</configuration>
-->

<tripinfos xmlns:xsi="http://www.w3.org/2001/XMLSchema-instance" xsi:noNamespaceSchemaLocation="http://sumo.dlr.de/xsd/tripinfo_file.xsd">
    <tripinfo id="0" depart="0.00" departLane="E1_0" departPos="100.10" departSpeed="0.00" departDelay="0.00" arrival="362.00" arrivalLane="E48_0" arrivalPos="100.00" arrivalSpeed="15.00" duration="362.00" routeLength="5266.37" waitingTime="0.00" waitingCount="0" stopTime="0.00" timeLoss="125.84" rerouteNo="3" devices="tripinfo_0" vType="rail0" speedFactor="1.00" vaporized=""/>
    <tripinfo id="1" depart="0.00" departLane="E2_0" departPos="100.10" departSpeed="0.00" departDelay="0.00" arrival="381.00" arrivalLane="E51_0" arrivalPos="100.00" arrivalSpeed="15.00" duration="381.00" routeLength="5292.63" waitingTime="0.00" waitingCount="0" stopTime="0.00" timeLoss="140.16" rerouteNo="3" devices="tripinfo_1" vType="rail1@1" speedFactor="1.00" vaporized=""/>
    <tripinfo id="2" depart="0.00" departLane="E3_0" departPos="100.10" departSpeed="0.00" departDelay="0.00" arrival="715.00" arrivalLane="E48_0" arrivalPos="100.00" arrivalSpeed="15.00" duration="715.00" routeLength="9969.27" waitingTime="9.00" waitingCount="1" stopTime="0.00" timeLoss="283.13" rerouteNo="5" devices="tripinfo_2" vType="rail2@2" speedFactor="1.00" vaporized=""/>
    <tripinfo id="3" depart="18.00" departLane="E3_0" departPos="100.10" departSpeed="0.00" departDelay="17.00" arrival="735.00" arrivalLane="E51_0" arrivalPos="100.00" arrivalSpeed="15.00" duration="717.00" routeLength="9968.78" waitingTime="1.00" waitingCount="1" stopTime="0.00" timeLoss="282.94" rerouteNo="5" devices="tripinfo_3" vType="rail3@3" speedFactor="1.00" vaporized=""/>
    <tripinfo id="4" depart="37.00" departLane="E3_0" departPos="100.10" departSpeed="0.00" departDelay="14.00" arrival="1069.00" arrivalLane="E48_0" arrivalPos="100.00" arrivalSpeed="15.00" duration="1032.00" routeLength="14622.18" waitingTime="0.00" waitingCount="0" stopTime="0.00" timeLoss="412.37" rerouteNo="7" devices="tripinfo_4" vType="rail4@4" speedFactor="1.00" vaporized=""/>
    <tripinfo id="5" depart="62.00" departLane="E3_0" departPos="100.10" departSpeed="0.00" departDelay="17.00" arrival="1089.00" arrivalLane="E51_0" arrivalPos="100.00" arrivalSpeed="15.00" duration="1027.00" routeLength="14621.69" waitingTime="0.00" waitingCount="0" stopTime="0.00" timeLoss="405.57" rerouteNo="7" devices="tripinfo_5" vType="rail5@5" speedFactor="1.00" vaporized=""/>
    <tripinfo id="6" depart="83.00" departLane="E3_0" departPos="100.10" departSpeed="0.00" departDelay="16.00" arrival="1422.00" arrivalLane="E48_0" arrivalPos="100.00" arrivalSpeed="15.00" duration="1339.00" routeLength="19275.09" waitingTime="1.00" waitingCount="1" stopTime="0.00" timeLoss="533.56" rerouteNo="9" devices="tripinfo_6" vType="rail6@6" speedFactor="1.00" vaporized=""/>
    <tripinfo id="7" depart="103.00" departLane="E3_0" departPos="100.10" departSpeed="0.00" departDelay="14.00" arrival="1443.00" arrivalLane="E51_0" arrivalPos="100.00" arrivalSpeed="15.00" duration="1340.00" routeLength="19274.60" waitingTime="3.00" waitingCount="3" stopTime="0.00" timeLoss="534.31" rerouteNo="9" devices="tripinfo_7" vType="rail7@7" speedFactor="1.00" vaporized=""/>
    <tripinfo id="8" depart="123.00" departLane="E3_0" departPos="100.10" departSpeed="0.00" departDelay="12.00" arrival="1776.00" arrivalLane="E48_0" arrivalPos="100.00" arrivalSpeed="15.00" duration="1653.00" routeLength="23928.00" waitingTime="6.00" waitingCount="3" stopTime="0.00" timeLoss="660.80" rerouteNo="11" devices="tripinfo_8" vType="rail8@8" speedFactor="1.00" vaporized=""/>
    <tripinfo id="9" depart="144.00" departLane="E3_0" departPos="100.10" departSpeed="0.00" departDelay="11.00" arrival="1795.00" arrivalLane="E51_0" arrivalPos="100.00" arrivalSpeed="15.00" duration="1651.00" routeLength="23927.51" waitingTime="10.00" waitingCount="3" stopTime="0.00" timeLoss="658.13" rerouteNo="11" devices="tripinfo_9" vType="rail9@9" speedFactor="1.00" vaporized=""/>
    <tripinfo id="10" depart="165.00" departLane="E3_0" departPos="100.10" departSpeed="0.00" departDelay="10.00" arrival="2129.00" arrivalLane="E48_0" arrivalPos="100.00" arrivalSpeed="15.00" duration="1964.00" routeLength="28580.91" waitingTime="12.00" waitingCount="3" stopTime="0.00" timeLoss="781.20" rerouteNo="13" devices="tripinfo_10" vType="rail10@10" speedFactor="1.00" vaporized=""/>
    <tripinfo id="11" depart="184.00" departLane="E3_0" departPos="100.10" departSpeed="0.00" departDelay="7.00" arrival="2149.00" arrivalLane="E51_0" arrivalPos="100.00" arrivalSpeed="15.00" duration="1965.00" routeLength="28580.42" waitingTime="14.00" waitingCount="3" stopTime="0.00" timeLoss="778.24" rerouteNo="13" devices="tripinfo_11" vType="rail11@11" speedFactor="1.00" vaporized=""/>
    <tripinfo id="12" depart="209.00" departLane="E3_0" departPos="100.10" departSpeed="0.00" departDelay="10.00" arrival="2482.00" arrivalLane="E48_0" arrivalPos="100.00" arrivalSpeed="15.00" duration="2273.00" routeLength="33233.82" waitingTime="16.00" waitingCount="5" stopTime="0.00" timeLoss="906.28" rerouteNo="15" devices="tripinfo_12" vType="rail12@12" speedFactor="1.00" vaporized=""/>
    <tripinfo id="13" depart="230.00" departLane="E3_0" departPos="100.10" departSpeed="0.00" departDelay="9.00" arrival="2502.00" arrivalLane="E51_0" arrivalPos="100.00" arrivalSpeed="15.00" duration="2272.00" routeLength="33233.33" waitingTime="21.00" waitingCount="3" stopTime="0.00" timeLoss="903.01" rerouteNo="15" devices="tripinfo_13" vType="rail13@13" speedFactor="1.00" vaporized=""/>
    <tripinfo id="14" depart="252.00" departLane="E3_0" departPos="100.10" departSpeed="0.00" departDelay="9.00" arrival="2836.00" arrivalLane="E48_0" arrivalPos="100.00" arrivalSpeed="15.00" duration="2584.00" routeLength="37886.73" waitingTime="23.00" waitingCount="7" stopTime="0.00" timeLoss="1029.77" rerouteNo="17" devices="tripinfo_14" vType="rail14@14" speedFactor="1.00" vaporized=""/>
    <tripinfo id="15" depart="274.00" departLane="E3_0" departPos="100.10" departSpeed="0.00" departDelay="9.00" arrival="2855.00" arrivalLane="E51_0" arrivalPos="100.00" arrivalSpeed="15.00" duration="2581.00" routeLength="37886.24" waitingTime="26.00" waitingCount="7" stopTime="0.00" timeLoss="1028.97" rerouteNo="17" devices="tripinfo_15" vType="rail15@15" speedFactor="1.00" vaporized=""/>
    <tripinfo id="16" depart="297.00" departLane="E3_0" departPos="100.10" departSpeed="0.00" departDelay="10.00" arrival="3189.00" arrivalLane="E48_0" arrivalPos="100.00" arrivalSpeed="15.00" duration="2892.00" routeLength="37886.73" waitingTime="234.00" waitingCount="9" stopTime="0.00" timeLoss="1338.26" rerouteNo="17" devices="tripinfo_16" vType="rail16@16" speedFactor="1.00" vaporized=""/>
    <tripinfo id="17" depart="322.00" departLane="E3_0" departPos="100.10" departSpeed="0.00" departDelay="13.00" arrival="3209.00" arrivalLane="E51_0" arrivalPos="100.00" arrivalSpeed="15.00" duration="2887.00" routeLength="37886.24" waitingTime="225.00" waitingCount="8" stopTime="0.00" timeLoss="1334.72" rerouteNo="17" devices="tripinfo_17" vType="rail17@17" speedFactor="1.00" vaporized=""/>
    <tripinfo id="18" depart="541.00" departLane="E3_0" departPos="100.10" departSpeed="0.00" departDelay="210.00" arrival="3543.00" arrivalLane="E48_0" arrivalPos="100.00" arrivalSpeed="15.00" duration="3002.00" routeLength="42539.64" waitingTime="41.00" waitingCount="9" stopTime="0.00" timeLoss="1259.79" rerouteNo="19" devices="tripinfo_18" vType="rail18@18" speedFactor="1.00" vaporized=""/>
    <tripinfo id="19" depart="562.00" departLane="E3_0" departPos="100.10" departSpeed="0.00" departDelay="209.00" arrival="3563.00" arrivalLane="E51_0" arrivalPos="100.00" arrivalSpeed="15.00" duration="3001.00" routeLength="42539.15" waitingTime="33.00" waitingCount="8" stopTime="0.00" timeLoss="1254.26" rerouteNo="19" devices="tripinfo_19" vType="rail19@19" speedFactor="1.00" vaporized=""/>
    <tripinfo id="20" depart="583.00" departLane="E3_0" departPos="100.10" departSpeed="0.00" departDelay="208.00" arrival="3812.00" arrivalLane="E29_0" arrivalPos="109.67" arrivalSpeed="15.00" duration="3229.00" routeLength="41278.17" waitingTime="312.00" waitingCount="8" stopTime="0.00" timeLoss="1573.84" rerouteNo="17" devices="tripinfo_20" vType="rail20@20" speedFactor="1.00" vaporized=""/>
    <tripinfo id="21" depart="610.00" departLane="E3_0" departPos="100.10" departSpeed="0.00" departDelay="213.00" arrival="3820.00" arrivalLane="E29_0" arrivalPos="109.67" arrivalSpeed="15.00" duration="3210.00" routeLength="41278.17" waitingTime="316.00" waitingCount="10" stopTime="0.00" timeLoss="1553.33" rerouteNo="17" devices="tripinfo_21" vType="rail21@21" speedFactor="1.00" vaporized=""/>
    <tripinfo id="22" depart="932.00" departLane="E3_0" departPos="100.10" departSpeed="0.00" departDelay="513.00" arrival="3828.00" arrivalLane="E29_0" arrivalPos="109.67" arrivalSpeed="15.00" duration="2896.00" routeLength="41278.17" waitingTime="29.00" waitingCount="11" stopTime="0.00" timeLoss="1234.39" rerouteNo="17" devices="tripinfo_22" vType="rail22@22" speedFactor="1.00" vaporized=""/>
    <tripinfo id="23" depart="955.00" departLane="E3_0" departPos="100.10" departSpeed="0.00" departDelay="514.00" arrival="3836.00" arrivalLane="E29_0" arrivalPos="109.67" arrivalSpeed="15.00" duration="2881.00" routeLength="41278.17" waitingTime="31.00" waitingCount="12" stopTime="0.00" timeLoss="1220.27" rerouteNo="17" devices="tripinfo_23" vType="rail23@23" speedFactor="1.00" vaporized=""/>
    <tripinfo id="24" depart="978.00" departLane="E3_0" departPos="100.10" departSpeed="0.00" departDelay="515.00" arrival="3843.00" arrivalLane="E29_0" arrivalPos="109.67" arrivalSpeed="15.00" duration="2865.00" routeLength="31972.35" waitingTime="589.00" waitingCount="8" stopTime="0.00" timeLoss="1582.92" rerouteNo="13" devices="tripinfo_24" vType="rail24@24" speedFactor="1.00" vaporized=""/>
    <tripinfo id="25" depart="1015.00" departLane="E3_0" departPos="100.10" departSpeed="0.00" departDelay="530.00" arrival="3851.00" arrivalLane="E29_0" arrivalPos="109.67" arrivalSpeed="15.00" duration="2836.00" routeLength="31972.35" waitingTime="632.00" waitingCount="33" stopTime="0.00" timeLoss="1552.65" rerouteNo="13" devices="tripinfo_25" vType="rail25@25" speedFactor="1.00" vaporized=""/>
    <tripinfo id="26" depart="1303.00" departLane="E3_0" departPos="100.10" departSpeed="0.00" departDelay="796.00" arrival="3859.00" arrivalLane="E29_0" arrivalPos="109.67" arrivalSpeed="15.00" duration="2556.00" routeLength="31972.35" waitingTime="330.00" waitingCount="11" stopTime="0.00" timeLoss="1273.40" rerouteNo="13" devices="tripinfo_26" vType="rail26@26" speedFactor="1.00" vaporized=""/>
    <tripinfo id="27" depart="1635.00" departLane="E3_0" departPos="100.10" departSpeed="0.00" departDelay="1106.00" arrival="3866.00" arrivalLane="E29_0" arrivalPos="109.67" arrivalSpeed="15.00" duration="2231.00" routeLength="31972.35" waitingTime="29.00" waitingCount="10" stopTime="0.00" timeLoss="947.64" rerouteNo="13" devices="tripinfo_27" vType="rail27@27" speedFactor="1.00" vaporized=""/>
    <tripinfo id="28" depart="1657.00" departLane="E3_0" departPos="100.10" departSpeed="0.00" departDelay="1106.00" arrival="3875.00" arrivalLane="E29_0" arrivalPos="109.67" arrivalSpeed="15.10" duration="2218.00" routeLength="31972.35" waitingTime="26.00" waitingCount="10" stopTime="0.00" timeLoss="930.73" rerouteNo="13" devices="tripinfo_28" vType="rail28@28" speedFactor="1.00" vaporized=""/>
    <tripinfo id="29" depart="1678.00" departLane="E3_0" departPos="100.10" departSpeed="0.00" departDelay="1105.00" arrival="3967.00" arrivalLane="E48_0" arrivalPos="100.00" arrivalSpeed="15.00" duration="2289.00" routeLength="23928.00" waitingTime="608.00" waitingCount="5" stopTime="0.00" timeLoss="1296.13" rerouteNo="10" devices="tripinfo_29" vType="rail29@29" speedFactor="1.00" vaporized=""/>
</tripinfos>
